  python dir          : /home/vossj/suncat/lib/python2.7/site-packages/espresso
  espresso dir        : /home/vossj/suncat/esdld/espresso-dynpy-beef/bin
  pseudo dir          : /home/alatimer/bin/psp/esp_psp_w_gbrvRu/
  ase-espresso py git : ffa2778-git



     Program PWSCF v.5.1rc2 (svn rev. ) starts on 23Feb2018 at 13:48:17 

     This program is part of the open-source Quantum ESPRESSO suite
     for quantum simulation of materials; please cite
         "P. Giannozzi et al., J. Phys.:Condens. Matter 21 395502 (2009);
          URL http://www.quantum-espresso.org", 
     in publications or presentations arising from this work. More details at
     http://www.quantum-espresso.org/quote

     Parallel version (MPI), running on    16 processors
     R & G space division:  proc/nbgrp/npool/nimage =      16
     Reading input from pw.inp
     Message from routine read_cards :
     DEPRECATED: no units specified in CELL_PARAMETERS card

     Current dimensions of program PWSCF are:
     Max number of different atomic species (ntypx) = 10
     Max number of k-points (npk) =  40000
     Max angular momentum in pseudopotentials (lmaxx) =  3
     Presently no symmetry can be used with electric field


     **************************************************************************
     Initializing libbeef V0.1.1 with the BEEF-vdW functional.
     Citation: Wellendorff et al., PRB 85, 235149 (2012).
     **************************************************************************


     IMPORTANT: XC functional enforced from input :
     Exchange-correlation      = BEEF-VDW ( 1  4 27 13 2)
     Any further DFT definition will be discarded
     Please, verify this is what you really want


     Subspace diagonalization in iterative solution of the eigenvalue problem:
     a serial algorithm will be used

 
     Parallelization info
     --------------------
     sticks:   dense  smooth     PW     G-vecs:    dense   smooth      PW
     Min         425     170     45               143349    36220    4985
     Max         426     171     46               143368    36313    5000
     Sum        6807    2725    727              2293727   580231   79891
 
     Generating pointlists ...
     new r_m :   0.4125 (alat units)  0.7795 (a.u.) for type    1
     new r_m :   0.4125 (alat units)  0.7795 (a.u.) for type    2
     new r_m :   0.4045 (alat units)  0.7644 (a.u.) for type    3
     new r_m :   0.4045 (alat units)  0.7644 (a.u.) for type    4


     bravais-lattice index     =            0
     lattice parameter (alat)  =       1.8897  a.u.
     unit-cell volume          =   16711.7286 (a.u.)^3
     number of atoms/cell      =           40
     number of atomic types    =            4
     number of electrons       =       377.00
     number of Kohn-Sham states=          288
     kinetic-energy cutoff     =      40.4243  Ry
     charge density cutoff     =     404.2426  Ry
     convergence threshold     =      7.3E-07
     mixing beta               =       0.1000
     number of iterations used =           10  plain     mixing
     Exchange-correlation      = BEEF-VDW ( 1  4 27 13 2)
     nstep                     =           50


     celldm(1)=   1.889726  celldm(2)=   0.000000  celldm(3)=   0.000000
     celldm(4)=   0.000000  celldm(5)=   0.000000  celldm(6)=   0.000000

     crystal axes: (cart. coord. in units of alat)
               a(1) = (   6.955292   0.000000   0.000000 )  
               a(2) = (   0.000000   8.518459   0.000000 )  
               a(3) = (   0.000000   0.000000  41.797313 )  

     reciprocal axes: (cart. coord. in units 2 pi/alat)
               b(1) = (  0.143775  0.000000  0.000000 )  
               b(2) = (  0.000000  0.117392  0.000000 )  
               b(3) = (  0.000000  0.000000  0.023925 )  


     PseudoPot. # 1 for Pt read from file:
     /home/alatimer/bin/psp/esp_psp_w_gbrvRu/Pt.UPF
     MD5 check sum: df5be8f5ed4f66d4aed38ca70ec8d507
     Pseudo is Ultrasoft + core correction, Zval = 10.0
     Generated using "atomic" code by A. Dal Corso  v.5.0.2 svn rev. 9415
     Using radial grid of 1277 points,  6 beta functions with: 
                l(1) =   0
                l(2) =   0
                l(3) =   1
                l(4) =   1
                l(5) =   2
                l(6) =   2
     Q(r) pseudized with 0 coefficients 


     PseudoPot. # 2 for  C read from file:
     /home/alatimer/bin/psp/esp_psp_w_gbrvRu/C.UPF
     MD5 check sum: ab446d787031eba755f1d5ee46644bb0
     Pseudo is Ultrasoft + core correction, Zval =  4.0
     Generated using "atomic" code by A. Dal Corso  v.5.0.2 svn rev. 9415
     Using radial grid of 1073 points,  4 beta functions with: 
                l(1) =   0
                l(2) =   0
                l(3) =   1
                l(4) =   1
     Q(r) pseudized with 0 coefficients 


     PseudoPot. # 3 for  O read from file:
     /home/alatimer/bin/psp/esp_psp_w_gbrvRu/O.UPF
     MD5 check sum: e057bbcf3229fb5d8c36c0c92f9568b4
     Pseudo is Ultrasoft + core correction, Zval =  6.0
     Generated using "atomic" code by A. Dal Corso  v.5.0.2 svn rev. 9415
     Using radial grid of 1095 points,  4 beta functions with: 
                l(1) =   0
                l(2) =   0
                l(3) =   1
                l(4) =   1
     Q(r) pseudized with 0 coefficients 


     PseudoPot. # 4 for  H read from file:
     /home/alatimer/bin/psp/esp_psp_w_gbrvRu/H.UPF
     MD5 check sum: bd57da0722753ddfd9833a65b40bb853
     Pseudo is Ultrasoft, Zval =  1.0
     Generated using "atomic" code by A. Dal Corso  v.5.0.2 svn rev. 9415
     Using radial grid of  929 points,  2 beta functions with: 
                l(1) =   0
                l(2) =   0
     Q(r) pseudized with 0 coefficients 


     vdW kernel table read from file vdW_kernel_table
     MD5 check sum: 095c7af220d748ca6e76c0b4c6cfb241

     atomic species   valence    mass     pseudopotential
        Pt1           10.00   195.08000     Pt( 1.00)
        C1             4.00    12.01100      C( 1.00)
        O1             6.00    15.99940      O( 1.00)
        H1             1.00     1.00794      H( 1.00)

     Starting magnetic structure 
     atomic species   magnetization
        Pt1          0.200
        C1           0.500
        O1           0.333
        H1           0.000

     No symmetry found



   Cartesian axes

     site n.     atom                  positions (alat units)
         1           Pt1 tau(   1) = (   6.8652921   0.0191155  25.3064894  )
         2           Pt1 tau(   2) = (   6.8273397   2.7928707  25.2607987  )
         3           Pt1 tau(   3) = (   6.8980867   5.5808986  25.2862592  )
         4           Pt1 tau(   4) = (   4.5702161   7.0704456  24.5575867  )
         5           Pt1 tau(   5) = (   4.5397419   1.4041341  24.5888360  )
         6           Pt1 tau(   6) = (   4.5565032   4.2316811  24.5776218  )
         7           Pt1 tau(   7) = (   2.3163577   8.5020286  23.8807008  )
         8           Pt1 tau(   8) = (   2.3024606   2.8290361  23.8829939  )
         9           Pt1 tau(   9) = (   2.3292746   5.6676294  23.8633109  )
        10           Pt1 tau(  10) = (   0.0449520   7.0971084  22.8943846  )
        11           Pt1 tau(  11) = (   0.0322291   1.3935238  22.9178304  )
        12           Pt1 tau(  12) = (   0.0286223   4.2818050  22.9349885  )
        13           Pt1 tau(  13) = (   4.6346365   0.0038268  22.1153787  )
        14           Pt1 tau(  14) = (   4.6366985   2.8379384  22.1115384  )
        15           Pt1 tau(  15) = (   4.6358157   5.6770275  22.1102001  )
        16           Pt1 tau(  16) = (   2.3467405   7.1092913  21.3013966  )
        17           Pt1 tau(  17) = (   2.3360882   1.4307538  21.3087198  )
        18           Pt1 tau(  18) = (   2.3360373   4.2649451  21.3057632  )
        19           Pt1 tau(  19) = (   0.0270981   0.0241464  20.4874990  )
        20           Pt1 tau(  20) = (   0.0270981   2.8636326  20.4874990  )
        21           Pt1 tau(  21) = (   0.0270981   5.7031188  20.4874990  )
        22           Pt1 tau(  22) = (   4.6639596   7.1228619  19.6678099  )
        23           Pt1 tau(  23) = (   4.6639596   1.4438895  19.6678099  )
        24           Pt1 tau(  24) = (   4.6639596   4.2833757  19.6678099  )
        25           Pt1 tau(  25) = (   2.3455289   0.0241464  18.8481208  )
        26           Pt1 tau(  26) = (   2.3455289   2.8636326  18.8481208  )
        27           Pt1 tau(  27) = (   2.3455289   5.7031188  18.8481208  )
        28           Pt1 tau(  28) = (   0.0270981   7.1228619  18.0284318  )
        29           Pt1 tau(  29) = (   0.0270981   1.4438895  18.0284318  )
        30           Pt1 tau(  30) = (   0.0270981   4.2833757  18.0284318  )
        31           Pt1 tau(  31) = (   4.6639596   0.0241464  17.2087427  )
        32           Pt1 tau(  32) = (   4.6639596   2.8636326  17.2087427  )
        33           Pt1 tau(  33) = (   4.6639596   5.7031188  17.2087427  )
        34           Pt1 tau(  34) = (   2.3455289   7.1228619  16.3890537  )
        35           Pt1 tau(  35) = (   2.3455289   1.4438895  16.3890537  )
        36           Pt1 tau(  36) = (   2.3455289   4.2833757  16.3890537  )
        37           C1  tau(  37) = (   6.9164311   7.7801377  27.1375725  )
        38           O1  tau(  38) = (   0.0387320   6.5476080  27.3270325  )
        39           O1  tau(  39) = (   6.9036920   0.0420705  28.2211360  )
        40           H1  tau(  40) = (   6.8132443   0.9736787  27.9284941  )

     number of k points=    10  Fermi-Dirac smearing, width (Ry)=  0.0073
                       cart. coord. in units 2pi/alat
        k(    1) = (   0.0000000   0.0000000   0.0000000), wk =   0.1111111
        k(    2) = (   0.0000000   0.0391307   0.0000000), wk =   0.2222222
        k(    3) = (   0.0479251   0.0000000   0.0000000), wk =   0.2222222
        k(    4) = (   0.0479251   0.0391307   0.0000000), wk =   0.2222222
        k(    5) = (   0.0479251  -0.0391307   0.0000000), wk =   0.2222222
        k(    6) = (   0.0000000   0.0000000   0.0000000), wk =   0.1111111
        k(    7) = (   0.0000000   0.0391307   0.0000000), wk =   0.2222222
        k(    8) = (   0.0479251   0.0000000   0.0000000), wk =   0.2222222
        k(    9) = (   0.0479251   0.0391307   0.0000000), wk =   0.2222222
        k(   10) = (   0.0479251  -0.0391307   0.0000000), wk =   0.2222222

     Dense  grid:  2293727 G-vectors     FFT dimensions: (  90, 108, 512)

     Smooth grid:   580231 G-vectors     FFT dimensions: (  54,  72, 320)

     Largest allocated arrays     est. size (Mb)     dimensions
        Kohn-Sham Wavefunctions        19.94 Mb     (    4538,  288)
        NL pseudopotentials            46.67 Mb     (    4538,  674)
        Each V/rho on FFT grid          9.49 Mb     (  311040,   2)
        Each G-vector array             1.09 Mb     (  143351)
        G-vector shells                 0.48 Mb     (   63293)
     Largest temporary arrays     est. size (Mb)     dimensions
        Auxiliary wavefunctions        79.77 Mb     (    4538, 1152)
        Each subspace H/S matrix       20.25 Mb     (    1152, 1152)
        Each <psi_i|beta_j> matrix      2.96 Mb     (     674,  288)
        Arrays for rho mixing          47.46 Mb     (  311040,   10)

     Check: negative/imaginary core charge=   -0.000004    0.000000

     Initial potential from superposition of free atoms
     Check: negative starting charge=(component1):   -0.003338
     Check: negative starting charge=(component2):   -0.002226

     starting charge  376.99384, renormalised to  377.00000

     negative rho (up, down):  3.339E-03 2.226E-03


     ************************************************************************
     *
     * You are using vdW-DF for exchange-correlation in this calculation.
     * Please cite the following three references that made this development
     * possible:
     *
     *   M. Dion, H. Rydberg, E. Schroder, D. C. Langreth, and
     *   B. I. Lundqvist, Phys. Rev. Lett. 92, 246401 (2004).
     *
     *   T. Thonhauser, V. R. Cooper, S. Li, A. Puzder, P. Hyldgaard, and
     *   D. C. Langreth, Phys. Rev. B 76, 125112 (2007).
     *
     *   G. Roman-Perez and J. M. Soler, Phys. Rev. Lett. 103, 096102 (2009).
     *
     *
     * If you are using vdW-DF2, please also cite:
     *
     *   K. Lee, E. D. Murray, L. Kong, B. I. Lundqvist, and
     *   D. C. Langreth, Phys. Rev. B 82, 081101(R) (2010).
     *
     *
     * If you are calculating the stress with vdW-DF, please also cite:
     *
     *   R. Sabatini, E. Kucukbenli, B. Kolb, T. Thonhauser, and
     *   S. de Gironcoli, J. Phys.: Condens. Matter 24, 424209 (2012).
     *
     ************************************************************************

     Carrying out vdW-DF run using the following parameters:

     Nqs =      20    Nr_points =    1024   r_max =   100.000
     q_mesh =
               0.00001000     0.04494208     0.09755937     0.15916263
               0.23128650     0.31572767     0.41458969     0.53033537
               0.66584808     0.82450364     1.01025438     1.22772762
               1.48234092     1.78043706     2.12944203     2.53805004
               3.01644009     3.57652955     4.23227104     5.00000000

     Gradients computed in reciprocal space

     ************************************************************************


 
     Adding external electric field

     Computed dipole along edir(3) : 
        Dipole               -0.0029 Ry au,         -0.0073 Debye
        Dipole field         -0.0000 Ry au
 
        Potential amp.        0.0003 Ry
        Total length         77.0108 bohr
 
 
     Adding external electric field

     Computed dipole along edir(3) : 
        Dipole               -0.0029 Ry au,         -0.0073 Debye
        Dipole field         -0.0000 Ry au
 
        Potential amp.        0.0003 Ry
        Total length         77.0108 bohr
 
     Starting wfc are  337 randomized atomic wfcs

     total cpu time spent up to now is       70.7 secs

     Self-consistent Calculation

     iteration #  1     ecut=    40.42 Ry     beta=0.10
     Davidson diagonalization with overlap
     ethr =  1.00E-02,  avg # of iterations =  8.3

     Threshold (ethr) on eigenvalues was too large:
     Diagonalizing with lowered threshold

     Davidson diagonalization with overlap
     ethr =  9.10E-04,  avg # of iterations =  2.0

     negative rho (up, down):  3.253E-03 2.211E-03
 
     Adding external electric field

     Computed dipole along edir(3) : 
        Dipole               -0.6909 Ry au,         -1.7560 Debye
        Dipole field         -0.0005 Ry au
 
        Potential amp.        0.0800 Ry
        Total length         77.0108 bohr
 
 
     Adding external electric field

     Computed dipole along edir(3) : 
        Dipole               -0.6909 Ry au,         -1.7560 Debye
        Dipole field         -0.0005 Ry au
 
        Potential amp.        0.0800 Ry
        Total length         77.0108 bohr
 
 
     Magnetic moment per site:
     atom:    1    charge:    0.7120    magn:    0.1329    constr:    0.0000
     atom:    2    charge:    0.7128    magn:    0.1344    constr:    0.0000
     atom:    3    charge:    0.7109    magn:    0.1347    constr:    0.0000
     atom:    4    charge:    0.7114    magn:    0.1346    constr:    0.0000
     atom:    5    charge:    0.7113    magn:    0.1344    constr:    0.0000
     atom:    6    charge:    0.7117    magn:    0.1347    constr:    0.0000
     atom:    7    charge:    0.7108    magn:    0.1342    constr:    0.0000
     atom:    8    charge:    0.7104    magn:    0.1343    constr:    0.0000
     atom:    9    charge:    0.7107    magn:    0.1345    constr:    0.0000
     atom:   10    charge:    0.7117    magn:    0.1358    constr:    0.0000
     atom:   11    charge:    0.7122    magn:    0.1349    constr:    0.0000
     atom:   12    charge:    0.7101    magn:    0.1353    constr:    0.0000
     atom:   13    charge:    0.7123    magn:    0.1361    constr:    0.0000
     atom:   14    charge:    0.7119    magn:    0.1361    constr:    0.0000
     atom:   15    charge:    0.7118    magn:    0.1361    constr:    0.0000
     atom:   16    charge:    0.7104    magn:    0.1361    constr:    0.0000
     atom:   17    charge:    0.7117    magn:    0.1364    constr:    0.0000
     atom:   18    charge:    0.7119    magn:    0.1364    constr:    0.0000
     atom:   19    charge:    0.7100    magn:    0.1360    constr:    0.0000
     atom:   20    charge:    0.7102    magn:    0.1353    constr:    0.0000
     atom:   21    charge:    0.7100    magn:    0.1360    constr:    0.0000
     atom:   22    charge:    0.7102    magn:    0.1359    constr:    0.0000
     atom:   23    charge:    0.7102    magn:    0.1359    constr:    0.0000
     atom:   24    charge:    0.7101    magn:    0.1358    constr:    0.0000
     atom:   25    charge:    0.7103    magn:    0.1360    constr:    0.0000
     atom:   26    charge:    0.7102    magn:    0.1359    constr:    0.0000
     atom:   27    charge:    0.7102    magn:    0.1359    constr:    0.0000
     atom:   28    charge:    0.7106    magn:    0.1346    constr:    0.0000
     atom:   29    charge:    0.7106    magn:    0.1346    constr:    0.0000
     atom:   30    charge:    0.7105    magn:    0.1348    constr:    0.0000
     atom:   31    charge:    0.7109    magn:    0.1345    constr:    0.0000
     atom:   32    charge:    0.7110    magn:    0.1344    constr:    0.0000
     atom:   33    charge:    0.7109    magn:    0.1345    constr:    0.0000
     atom:   34    charge:    0.7116    magn:    0.1336    constr:    0.0000
     atom:   35    charge:    0.7116    magn:    0.1336    constr:    0.0000
     atom:   36    charge:    0.7115    magn:    0.1336    constr:    0.0000
     atom:   37    charge:    0.6218    magn:    0.2734    constr:    0.0000
     atom:   38    charge:    1.9803    magn:    0.6001    constr:    0.0000
     atom:   39    charge:    1.9831    magn:    0.5937    constr:    0.0000
     atom:   40    charge:    0.3408    magn:    0.0348    constr:    0.0000

     total cpu time spent up to now is      398.0 secs

     total energy              =   -2734.82061273 Ry
     Harris-Foulkes estimate   =   -2735.09035628 Ry
     estimated scf accuracy    <       3.44605932 Ry

     total magnetization       =    26.92 Bohr mag/cell
     absolute magnetization    =    27.25 Bohr mag/cell

     iteration #  2     ecut=    40.42 Ry     beta=0.10
     Davidson diagonalization with overlap
     ethr =  9.14E-04,  avg # of iterations =  3.5

     negative rho (up, down):  3.457E-03 2.908E-03
 
     Adding external electric field

     Computed dipole along edir(3) : 
        Dipole                0.3071 Ry au,          0.7806 Debye
        Dipole field          0.0002 Ry au
 
        Potential amp.       -0.0356 Ry
        Total length         77.0108 bohr
 
 
     Adding external electric field

     Computed dipole along edir(3) : 
        Dipole                0.3071 Ry au,          0.7806 Debye
        Dipole field          0.0002 Ry au
 
        Potential amp.       -0.0356 Ry
        Total length         77.0108 bohr
 
 
     Magnetic moment per site:
     atom:    1    charge:    0.7108    magn:    0.1310    constr:    0.0000
     atom:    2    charge:    0.7108    magn:    0.1337    constr:    0.0000
     atom:    3    charge:    0.7086    magn:    0.1341    constr:    0.0000
     atom:    4    charge:    0.7100    magn:    0.1336    constr:    0.0000
     atom:    5    charge:    0.7101    magn:    0.1334    constr:    0.0000
     atom:    6    charge:    0.7103    magn:    0.1338    constr:    0.0000
     atom:    7    charge:    0.7101    magn:    0.1326    constr:    0.0000
     atom:    8    charge:    0.7097    magn:    0.1329    constr:    0.0000
     atom:    9    charge:    0.7099    magn:    0.1331    constr:    0.0000
     atom:   10    charge:    0.7116    magn:    0.1343    constr:    0.0000
     atom:   11    charge:    0.7122    magn:    0.1331    constr:    0.0000
     atom:   12    charge:    0.7099    magn:    0.1336    constr:    0.0000
     atom:   13    charge:    0.7125    magn:    0.1344    constr:    0.0000
     atom:   14    charge:    0.7122    magn:    0.1344    constr:    0.0000
     atom:   15    charge:    0.7121    magn:    0.1344    constr:    0.0000
     atom:   16    charge:    0.7109    magn:    0.1342    constr:    0.0000
     atom:   17    charge:    0.7122    magn:    0.1345    constr:    0.0000
     atom:   18    charge:    0.7124    magn:    0.1346    constr:    0.0000
     atom:   19    charge:    0.7106    magn:    0.1340    constr:    0.0000
     atom:   20    charge:    0.7109    magn:    0.1333    constr:    0.0000
     atom:   21    charge:    0.7106    magn:    0.1341    constr:    0.0000
     atom:   22    charge:    0.7107    magn:    0.1340    constr:    0.0000
     atom:   23    charge:    0.7107    magn:    0.1339    constr:    0.0000
     atom:   24    charge:    0.7107    magn:    0.1339    constr:    0.0000
     atom:   25    charge:    0.7106    magn:    0.1342    constr:    0.0000
     atom:   26    charge:    0.7106    magn:    0.1341    constr:    0.0000
     atom:   27    charge:    0.7106    magn:    0.1341    constr:    0.0000
     atom:   28    charge:    0.7107    magn:    0.1328    constr:    0.0000
     atom:   29    charge:    0.7107    magn:    0.1328    constr:    0.0000
     atom:   30    charge:    0.7106    magn:    0.1331    constr:    0.0000
     atom:   31    charge:    0.7108    magn:    0.1329    constr:    0.0000
     atom:   32    charge:    0.7109    magn:    0.1328    constr:    0.0000
     atom:   33    charge:    0.7108    magn:    0.1329    constr:    0.0000
     atom:   34    charge:    0.7112    magn:    0.1323    constr:    0.0000
     atom:   35    charge:    0.7112    magn:    0.1323    constr:    0.0000
     atom:   36    charge:    0.7111    magn:    0.1322    constr:    0.0000
     atom:   37    charge:    0.6217    magn:    0.2684    constr:    0.0000
     atom:   38    charge:    1.9838    magn:    0.5896    constr:    0.0000
     atom:   39    charge:    1.9869    magn:    0.5829    constr:    0.0000
     atom:   40    charge:    0.3416    magn:    0.0336    constr:    0.0000

     total cpu time spent up to now is      537.5 secs

     total energy              =   -2734.68532695 Ry
     Harris-Foulkes estimate   =   -2735.22549664 Ry
     estimated scf accuracy    <      14.42734712 Ry

     total magnetization       =    24.25 Bohr mag/cell
     absolute magnetization    =    24.57 Bohr mag/cell

     iteration #  3     ecut=    40.42 Ry     beta=0.10
     Davidson diagonalization with overlap
     ethr =  9.14E-04,  avg # of iterations =  3.3

     negative rho (up, down):  3.868E-03 4.088E-03
 
     Adding external electric field

     Computed dipole along edir(3) : 
        Dipole               -0.4697 Ry au,         -1.1938 Debye
        Dipole field         -0.0004 Ry au
 
        Potential amp.        0.0544 Ry
        Total length         77.0108 bohr
 
 
     Adding external electric field

     Computed dipole along edir(3) : 
        Dipole               -0.4697 Ry au,         -1.1938 Debye
        Dipole field         -0.0004 Ry au
 
        Potential amp.        0.0544 Ry
        Total length         77.0108 bohr
 
 
     Magnetic moment per site:
     atom:    1    charge:    0.7104    magn:    0.1287    constr:    0.0000
     atom:    2    charge:    0.7105    magn:    0.1322    constr:    0.0000
     atom:    3    charge:    0.7079    magn:    0.1327    constr:    0.0000
     atom:    4    charge:    0.7099    magn:    0.1319    constr:    0.0000
     atom:    5    charge:    0.7100    magn:    0.1317    constr:    0.0000
     atom:    6    charge:    0.7102    magn:    0.1321    constr:    0.0000
     atom:    7    charge:    0.7102    magn:    0.1307    constr:    0.0000
     atom:    8    charge:    0.7098    magn:    0.1311    constr:    0.0000
     atom:    9    charge:    0.7100    magn:    0.1312    constr:    0.0000
     atom:   10    charge:    0.7119    magn:    0.1324    constr:    0.0000
     atom:   11    charge:    0.7125    magn:    0.1311    constr:    0.0000
     atom:   12    charge:    0.7102    magn:    0.1317    constr:    0.0000
     atom:   13    charge:    0.7129    magn:    0.1325    constr:    0.0000
     atom:   14    charge:    0.7126    magn:    0.1325    constr:    0.0000
     atom:   15    charge:    0.7125    magn:    0.1325    constr:    0.0000
     atom:   16    charge:    0.7113    magn:    0.1323    constr:    0.0000
     atom:   17    charge:    0.7127    magn:    0.1326    constr:    0.0000
     atom:   18    charge:    0.7129    magn:    0.1327    constr:    0.0000
     atom:   19    charge:    0.7109    magn:    0.1322    constr:    0.0000
     atom:   20    charge:    0.7112    magn:    0.1314    constr:    0.0000
     atom:   21    charge:    0.7109    magn:    0.1323    constr:    0.0000
     atom:   22    charge:    0.7108    magn:    0.1323    constr:    0.0000
     atom:   23    charge:    0.7107    magn:    0.1323    constr:    0.0000
     atom:   24    charge:    0.7107    magn:    0.1322    constr:    0.0000
     atom:   25    charge:    0.7103    magn:    0.1327    constr:    0.0000
     atom:   26    charge:    0.7103    magn:    0.1325    constr:    0.0000
     atom:   27    charge:    0.7103    magn:    0.1326    constr:    0.0000
     atom:   28    charge:    0.7102    magn:    0.1313    constr:    0.0000
     atom:   29    charge:    0.7102    magn:    0.1313    constr:    0.0000
     atom:   30    charge:    0.7101    magn:    0.1316    constr:    0.0000
     atom:   31    charge:    0.7098    magn:    0.1317    constr:    0.0000
     atom:   32    charge:    0.7099    magn:    0.1316    constr:    0.0000
     atom:   33    charge:    0.7098    magn:    0.1317    constr:    0.0000
     atom:   34    charge:    0.7098    magn:    0.1314    constr:    0.0000
     atom:   35    charge:    0.7098    magn:    0.1314    constr:    0.0000
     atom:   36    charge:    0.7098    magn:    0.1313    constr:    0.0000
     atom:   37    charge:    0.6219    magn:    0.2632    constr:    0.0000
     atom:   38    charge:    1.9880    magn:    0.5784    constr:    0.0000
     atom:   39    charge:    1.9910    magn:    0.5714    constr:    0.0000
     atom:   40    charge:    0.3424    magn:    0.0323    constr:    0.0000

     total cpu time spent up to now is      676.5 secs

     total energy              =   -2734.72843946 Ry
     Harris-Foulkes estimate   =   -2735.32514871 Ry
     estimated scf accuracy    <      36.94314496 Ry

     total magnetization       =    25.07 Bohr mag/cell
     absolute magnetization    =    25.43 Bohr mag/cell

     iteration #  4     ecut=    40.42 Ry     beta=0.10
     Davidson diagonalization with overlap
     ethr =  9.14E-04,  avg # of iterations =  1.2

     negative rho (up, down):  3.191E-03 2.322E-03
 
     Adding external electric field

     Computed dipole along edir(3) : 
        Dipole               -0.4788 Ry au,         -1.2170 Debye
        Dipole field         -0.0004 Ry au
 
        Potential amp.        0.0555 Ry
        Total length         77.0108 bohr
 
 
     Adding external electric field

     Computed dipole along edir(3) : 
        Dipole               -0.4788 Ry au,         -1.2170 Debye
        Dipole field         -0.0004 Ry au
 
        Potential amp.        0.0555 Ry
        Total length         77.0108 bohr
 
 
     Magnetic moment per site:
     atom:    1    charge:    0.7086    magn:    0.1072    constr:    0.0000
     atom:    2    charge:    0.7106    magn:    0.1167    constr:    0.0000
     atom:    3    charge:    0.7060    magn:    0.1181    constr:    0.0000
     atom:    4    charge:    0.7085    magn:    0.1170    constr:    0.0000
     atom:    5    charge:    0.7089    magn:    0.1164    constr:    0.0000
     atom:    6    charge:    0.7091    magn:    0.1171    constr:    0.0000
     atom:    7    charge:    0.7083    magn:    0.1147    constr:    0.0000
     atom:    8    charge:    0.7080    magn:    0.1157    constr:    0.0000
     atom:    9    charge:    0.7081    magn:    0.1160    constr:    0.0000
     atom:   10    charge:    0.7105    magn:    0.1174    constr:    0.0000
     atom:   11    charge:    0.7111    magn:    0.1142    constr:    0.0000
     atom:   12    charge:    0.7086    magn:    0.1158    constr:    0.0000
     atom:   13    charge:    0.7107    magn:    0.1182    constr:    0.0000
     atom:   14    charge:    0.7102    magn:    0.1181    constr:    0.0000
     atom:   15    charge:    0.7102    magn:    0.1181    constr:    0.0000
     atom:   16    charge:    0.7088    magn:    0.1181    constr:    0.0000
     atom:   17    charge:    0.7100    magn:    0.1185    constr:    0.0000
     atom:   18    charge:    0.7104    magn:    0.1187    constr:    0.0000
     atom:   19    charge:    0.7084    magn:    0.1179    constr:    0.0000
     atom:   20    charge:    0.7088    magn:    0.1162    constr:    0.0000
     atom:   21    charge:    0.7086    magn:    0.1181    constr:    0.0000
     atom:   22    charge:    0.7085    magn:    0.1180    constr:    0.0000
     atom:   23    charge:    0.7083    magn:    0.1180    constr:    0.0000
     atom:   24    charge:    0.7084    magn:    0.1178    constr:    0.0000
     atom:   25    charge:    0.7082    magn:    0.1184    constr:    0.0000
     atom:   26    charge:    0.7081    magn:    0.1181    constr:    0.0000
     atom:   27    charge:    0.7082    magn:    0.1182    constr:    0.0000
     atom:   28    charge:    0.7081    magn:    0.1159    constr:    0.0000
     atom:   29    charge:    0.7080    magn:    0.1159    constr:    0.0000
     atom:   30    charge:    0.7080    magn:    0.1167    constr:    0.0000
     atom:   31    charge:    0.7083    magn:    0.1167    constr:    0.0000
     atom:   32    charge:    0.7084    magn:    0.1165    constr:    0.0000
     atom:   33    charge:    0.7083    magn:    0.1166    constr:    0.0000
     atom:   34    charge:    0.7094    magn:    0.1161    constr:    0.0000
     atom:   35    charge:    0.7094    magn:    0.1160    constr:    0.0000
     atom:   36    charge:    0.7094    magn:    0.1159    constr:    0.0000
     atom:   37    charge:    0.6237    magn:    0.2138    constr:    0.0000
     atom:   38    charge:    2.0239    magn:    0.4737    constr:    0.0000
     atom:   39    charge:    2.0270    magn:    0.4642    constr:    0.0000
     atom:   40    charge:    0.3511    magn:    0.0207    constr:    0.0000

     total cpu time spent up to now is      805.6 secs

     total energy              =   -2735.16864756 Ry
     Harris-Foulkes estimate   =   -2735.08869813 Ry
     estimated scf accuracy    <       1.82309396 Ry

     total magnetization       =    24.89 Bohr mag/cell
     absolute magnetization    =    25.23 Bohr mag/cell

     iteration #  5     ecut=    40.42 Ry     beta=0.10
     Davidson diagonalization with overlap
     ethr =  4.84E-04,  avg # of iterations =  1.8

     negative rho (up, down):  3.753E-03 4.422E-03
 
     Adding external electric field

     Computed dipole along edir(3) : 
        Dipole               -0.3754 Ry au,         -0.9542 Debye
        Dipole field         -0.0003 Ry au
 
        Potential amp.        0.0435 Ry
        Total length         77.0108 bohr
 
 
     Adding external electric field

     Computed dipole along edir(3) : 
        Dipole               -0.3754 Ry au,         -0.9542 Debye
        Dipole field         -0.0003 Ry au
 
        Potential amp.        0.0435 Ry
        Total length         77.0108 bohr
 
 
     Magnetic moment per site:
     atom:    1    charge:    0.7108    magn:    0.0832    constr:    0.0000
     atom:    2    charge:    0.7116    magn:    0.0993    constr:    0.0000
     atom:    3    charge:    0.7074    magn:    0.1004    constr:    0.0000
     atom:    4    charge:    0.7093    magn:    0.0997    constr:    0.0000
     atom:    5    charge:    0.7090    magn:    0.0994    constr:    0.0000
     atom:    6    charge:    0.7088    magn:    0.1005    constr:    0.0000
     atom:    7    charge:    0.7081    magn:    0.0967    constr:    0.0000
     atom:    8    charge:    0.7069    magn:    0.0988    constr:    0.0000
     atom:    9    charge:    0.7076    magn:    0.0989    constr:    0.0000
     atom:   10    charge:    0.7095    magn:    0.1010    constr:    0.0000
     atom:   11    charge:    0.7098    magn:    0.0959    constr:    0.0000
     atom:   12    charge:    0.7069    magn:    0.0983    constr:    0.0000
     atom:   13    charge:    0.7095    magn:    0.1023    constr:    0.0000
     atom:   14    charge:    0.7088    magn:    0.1023    constr:    0.0000
     atom:   15    charge:    0.7088    magn:    0.1022    constr:    0.0000
     atom:   16    charge:    0.7079    magn:    0.1022    constr:    0.0000
     atom:   17    charge:    0.7093    magn:    0.1025    constr:    0.0000
     atom:   18    charge:    0.7093    magn:    0.1030    constr:    0.0000
     atom:   19    charge:    0.7075    magn:    0.1019    constr:    0.0000
     atom:   20    charge:    0.7080    magn:    0.0994    constr:    0.0000
     atom:   21    charge:    0.7075    magn:    0.1025    constr:    0.0000
     atom:   22    charge:    0.7075    magn:    0.1022    constr:    0.0000
     atom:   23    charge:    0.7076    magn:    0.1020    constr:    0.0000
     atom:   24    charge:    0.7074    magn:    0.1019    constr:    0.0000
     atom:   25    charge:    0.7072    magn:    0.1027    constr:    0.0000
     atom:   26    charge:    0.7071    magn:    0.1022    constr:    0.0000
     atom:   27    charge:    0.7071    magn:    0.1025    constr:    0.0000
     atom:   28    charge:    0.7073    magn:    0.0990    constr:    0.0000
     atom:   29    charge:    0.7074    magn:    0.0990    constr:    0.0000
     atom:   30    charge:    0.7072    magn:    0.1003    constr:    0.0000
     atom:   31    charge:    0.7077    magn:    0.1001    constr:    0.0000
     atom:   32    charge:    0.7078    magn:    0.0999    constr:    0.0000
     atom:   33    charge:    0.7076    magn:    0.1002    constr:    0.0000
     atom:   34    charge:    0.7093    magn:    0.0995    constr:    0.0000
     atom:   35    charge:    0.7094    magn:    0.0993    constr:    0.0000
     atom:   36    charge:    0.7094    magn:    0.0993    constr:    0.0000
     atom:   37    charge:    0.6264    magn:    0.1598    constr:    0.0000
     atom:   38    charge:    2.0327    magn:    0.3622    constr:    0.0000
     atom:   39    charge:    2.0442    magn:    0.3477    constr:    0.0000
     atom:   40    charge:    0.3630    magn:    0.0089    constr:    0.0000

     total cpu time spent up to now is      936.9 secs

     total energy              =   -2735.41974960 Ry
     Harris-Foulkes estimate   =   -2735.23094177 Ry
     estimated scf accuracy    <       0.49973993 Ry

     total magnetization       =    22.94 Bohr mag/cell
     absolute magnetization    =    23.32 Bohr mag/cell

     iteration #  6     ecut=    40.42 Ry     beta=0.10
     Davidson diagonalization with overlap
     ethr =  1.33E-04,  avg # of iterations =  6.8

     negative rho (up, down):  4.407E-03 6.166E-03
 
     Adding external electric field

     Computed dipole along edir(3) : 
        Dipole               -0.2079 Ry au,         -0.5285 Debye
        Dipole field         -0.0002 Ry au
 
        Potential amp.        0.0241 Ry
        Total length         77.0108 bohr
 
 
     Adding external electric field

     Computed dipole along edir(3) : 
        Dipole               -0.2079 Ry au,         -0.5285 Debye
        Dipole field         -0.0002 Ry au
 
        Potential amp.        0.0241 Ry
        Total length         77.0108 bohr
 
 
     Magnetic moment per site:
     atom:    1    charge:    0.7130    magn:    0.0681    constr:    0.0000
     atom:    2    charge:    0.7132    magn:    0.0877    constr:    0.0000
     atom:    3    charge:    0.7095    magn:    0.0885    constr:    0.0000
     atom:    4    charge:    0.7099    magn:    0.0888    constr:    0.0000
     atom:    5    charge:    0.7099    magn:    0.0884    constr:    0.0000
     atom:    6    charge:    0.7101    magn:    0.0896    constr:    0.0000
     atom:    7    charge:    0.7084    magn:    0.0854    constr:    0.0000
     atom:    8    charge:    0.7079    magn:    0.0877    constr:    0.0000
     atom:    9    charge:    0.7084    magn:    0.0880    constr:    0.0000
     atom:   10    charge:    0.7099    magn:    0.0906    constr:    0.0000
     atom:   11    charge:    0.7104    magn:    0.0842    constr:    0.0000
     atom:   12    charge:    0.7080    magn:    0.0866    constr:    0.0000
     atom:   13    charge:    0.7099    magn:    0.0922    constr:    0.0000
     atom:   14    charge:    0.7099    magn:    0.0918    constr:    0.0000
     atom:   15    charge:    0.7097    magn:    0.0919    constr:    0.0000
     atom:   16    charge:    0.7085    magn:    0.0921    constr:    0.0000
     atom:   17    charge:    0.7099    magn:    0.0924    constr:    0.0000
     atom:   18    charge:    0.7103    magn:    0.0928    constr:    0.0000
     atom:   19    charge:    0.7081    magn:    0.0918    constr:    0.0000
     atom:   20    charge:    0.7088    magn:    0.0887    constr:    0.0000
     atom:   21    charge:    0.7084    magn:    0.0924    constr:    0.0000
     atom:   22    charge:    0.7082    magn:    0.0921    constr:    0.0000
     atom:   23    charge:    0.7080    magn:    0.0920    constr:    0.0000
     atom:   24    charge:    0.7083    magn:    0.0917    constr:    0.0000
     atom:   25    charge:    0.7077    magn:    0.0927    constr:    0.0000
     atom:   26    charge:    0.7078    magn:    0.0921    constr:    0.0000
     atom:   27    charge:    0.7080    magn:    0.0923    constr:    0.0000
     atom:   28    charge:    0.7079    magn:    0.0883    constr:    0.0000
     atom:   29    charge:    0.7078    magn:    0.0885    constr:    0.0000
     atom:   30    charge:    0.7078    magn:    0.0898    constr:    0.0000
     atom:   31    charge:    0.7082    magn:    0.0897    constr:    0.0000
     atom:   32    charge:    0.7083    magn:    0.0895    constr:    0.0000
     atom:   33    charge:    0.7084    magn:    0.0896    constr:    0.0000
     atom:   34    charge:    0.7102    magn:    0.0888    constr:    0.0000
     atom:   35    charge:    0.7100    magn:    0.0887    constr:    0.0000
     atom:   36    charge:    0.7103    magn:    0.0886    constr:    0.0000
     atom:   37    charge:    0.6292    magn:    0.1258    constr:    0.0000
     atom:   38    charge:    2.0246    magn:    0.2927    constr:    0.0000
     atom:   39    charge:    2.0420    magn:    0.2749    constr:    0.0000
     atom:   40    charge:    0.3719    magn:    0.0024    constr:    0.0000

     total cpu time spent up to now is     1091.1 secs

     total energy              =   -2735.56782146 Ry
     Harris-Foulkes estimate   =   -2735.45577952 Ry
     estimated scf accuracy    <       0.22210724 Ry

     total magnetization       =    20.89 Bohr mag/cell
     absolute magnetization    =    21.40 Bohr mag/cell

     iteration #  7     ecut=    40.42 Ry     beta=0.10
     Davidson diagonalization with overlap
     ethr =  5.89E-05,  avg # of iterations =  6.5

     negative rho (up, down):  5.073E-03 7.727E-03
 
     Adding external electric field

     Computed dipole along edir(3) : 
        Dipole               -0.1077 Ry au,         -0.2738 Debye
        Dipole field         -0.0001 Ry au
 
        Potential amp.        0.0125 Ry
        Total length         77.0108 bohr
 
 
     Adding external electric field

     Computed dipole along edir(3) : 
        Dipole               -0.1077 Ry au,         -0.2738 Debye
        Dipole field         -0.0001 Ry au
 
        Potential amp.        0.0125 Ry
        Total length         77.0108 bohr
 
 
     Magnetic moment per site:
     atom:    1    charge:    0.7151    magn:    0.0546    constr:    0.0000
     atom:    2    charge:    0.7143    magn:    0.0773    constr:    0.0000
     atom:    3    charge:    0.7115    magn:    0.0776    constr:    0.0000
     atom:    4    charge:    0.7113    magn:    0.0787    constr:    0.0000
     atom:    5    charge:    0.7111    magn:    0.0783    constr:    0.0000
     atom:    6    charge:    0.7112    magn:    0.0799    constr:    0.0000
     atom:    7    charge:    0.7097    magn:    0.0748    constr:    0.0000
     atom:    8    charge:    0.7089    magn:    0.0777    constr:    0.0000
     atom:    9    charge:    0.7095    magn:    0.0780    constr:    0.0000
     atom:   10    charge:    0.7115    magn:    0.0809    constr:    0.0000
     atom:   11    charge:    0.7118    magn:    0.0736    constr:    0.0000
     atom:   12    charge:    0.7091    magn:    0.0763    constr:    0.0000
     atom:   13    charge:    0.7117    magn:    0.0827    constr:    0.0000
     atom:   14    charge:    0.7111    magn:    0.0826    constr:    0.0000
     atom:   15    charge:    0.7110    magn:    0.0826    constr:    0.0000
     atom:   16    charge:    0.7100    magn:    0.0828    constr:    0.0000
     atom:   17    charge:    0.7113    magn:    0.0833    constr:    0.0000
     atom:   18    charge:    0.7113    magn:    0.0838    constr:    0.0000
     atom:   19    charge:    0.7097    magn:    0.0825    constr:    0.0000
     atom:   20    charge:    0.7100    magn:    0.0790    constr:    0.0000
     atom:   21    charge:    0.7097    magn:    0.0834    constr:    0.0000
     atom:   22    charge:    0.7097    magn:    0.0829    constr:    0.0000
     atom:   23    charge:    0.7095    magn:    0.0827    constr:    0.0000
     atom:   24    charge:    0.7094    magn:    0.0827    constr:    0.0000
     atom:   25    charge:    0.7094    magn:    0.0834    constr:    0.0000
     atom:   26    charge:    0.7092    magn:    0.0829    constr:    0.0000
     atom:   27    charge:    0.7093    magn:    0.0832    constr:    0.0000
     atom:   28    charge:    0.7091    magn:    0.0785    constr:    0.0000
     atom:   29    charge:    0.7091    magn:    0.0788    constr:    0.0000
     atom:   30    charge:    0.7088    magn:    0.0804    constr:    0.0000
     atom:   31    charge:    0.7096    magn:    0.0800    constr:    0.0000
     atom:   32    charge:    0.7095    magn:    0.0800    constr:    0.0000
     atom:   33    charge:    0.7094    magn:    0.0802    constr:    0.0000
     atom:   34    charge:    0.7111    magn:    0.0792    constr:    0.0000
     atom:   35    charge:    0.7112    magn:    0.0789    constr:    0.0000
     atom:   36    charge:    0.7110    magn:    0.0791    constr:    0.0000
     atom:   37    charge:    0.6322    magn:    0.0957    constr:    0.0000
     atom:   38    charge:    2.0167    magn:    0.2306    constr:    0.0000
     atom:   39    charge:    2.0364    magn:    0.2105    constr:    0.0000
     atom:   40    charge:    0.3802    magn:   -0.0028    constr:    0.0000

     total cpu time spent up to now is     1243.3 secs

     total energy              =   -2735.66336062 Ry
     Harris-Foulkes estimate   =   -2735.58150360 Ry
     estimated scf accuracy    <       0.13647074 Ry

     total magnetization       =    19.49 Bohr mag/cell
     absolute magnetization    =    20.11 Bohr mag/cell

     iteration #  8     ecut=    40.42 Ry     beta=0.10
     Davidson diagonalization with overlap
     ethr =  3.62E-05,  avg # of iterations =  6.1

     negative rho (up, down):  6.015E-03 9.700E-03
 
     Adding external electric field

     Computed dipole along edir(3) : 
        Dipole               -0.0722 Ry au,         -0.1835 Debye
        Dipole field         -0.0001 Ry au
 
        Potential amp.        0.0084 Ry
        Total length         77.0108 bohr
 
 
     Adding external electric field

     Computed dipole along edir(3) : 
        Dipole               -0.0722 Ry au,         -0.1835 Debye
        Dipole field         -0.0001 Ry au
 
        Potential amp.        0.0084 Ry
        Total length         77.0108 bohr
 
 
     Magnetic moment per site:
     atom:    1    charge:    0.7170    magn:    0.0399    constr:    0.0000
     atom:    2    charge:    0.7155    magn:    0.0653    constr:    0.0000
     atom:    3    charge:    0.7137    magn:    0.0651    constr:    0.0000
     atom:    4    charge:    0.7132    magn:    0.0672    constr:    0.0000
     atom:    5    charge:    0.7129    magn:    0.0670    constr:    0.0000
     atom:    6    charge:    0.7130    magn:    0.0688    constr:    0.0000
     atom:    7    charge:    0.7115    magn:    0.0628    constr:    0.0000
     atom:    8    charge:    0.7109    magn:    0.0662    constr:    0.0000
     atom:    9    charge:    0.7115    magn:    0.0665    constr:    0.0000
     atom:   10    charge:    0.7139    magn:    0.0700    constr:    0.0000
     atom:   11    charge:    0.7141    magn:    0.0618    constr:    0.0000
     atom:   12    charge:    0.7115    magn:    0.0644    constr:    0.0000
     atom:   13    charge:    0.7140    magn:    0.0721    constr:    0.0000
     atom:   14    charge:    0.7136    magn:    0.0720    constr:    0.0000
     atom:   15    charge:    0.7136    magn:    0.0720    constr:    0.0000
     atom:   16    charge:    0.7123    magn:    0.0724    constr:    0.0000
     atom:   17    charge:    0.7136    magn:    0.0730    constr:    0.0000
     atom:   18    charge:    0.7138    magn:    0.0733    constr:    0.0000
     atom:   19    charge:    0.7119    magn:    0.0721    constr:    0.0000
     atom:   20    charge:    0.7125    magn:    0.0680    constr:    0.0000
     atom:   21    charge:    0.7121    magn:    0.0732    constr:    0.0000
     atom:   22    charge:    0.7119    magn:    0.0726    constr:    0.0000
     atom:   23    charge:    0.7119    magn:    0.0723    constr:    0.0000
     atom:   24    charge:    0.7121    magn:    0.0724    constr:    0.0000
     atom:   25    charge:    0.7118    magn:    0.0731    constr:    0.0000
     atom:   26    charge:    0.7120    magn:    0.0724    constr:    0.0000
     atom:   27    charge:    0.7120    magn:    0.0727    constr:    0.0000
     atom:   28    charge:    0.7110    magn:    0.0674    constr:    0.0000
     atom:   29    charge:    0.7112    magn:    0.0677    constr:    0.0000
     atom:   30    charge:    0.7112    magn:    0.0694    constr:    0.0000
     atom:   31    charge:    0.7114    magn:    0.0694    constr:    0.0000
     atom:   32    charge:    0.7116    magn:    0.0692    constr:    0.0000
     atom:   33    charge:    0.7116    magn:    0.0695    constr:    0.0000
     atom:   34    charge:    0.7125    magn:    0.0684    constr:    0.0000
     atom:   35    charge:    0.7126    magn:    0.0681    constr:    0.0000
     atom:   36    charge:    0.7127    magn:    0.0683    constr:    0.0000
     atom:   37    charge:    0.6359    magn:    0.0631    constr:    0.0000
     atom:   38    charge:    2.0097    magn:    0.1618    constr:    0.0000
     atom:   39    charge:    2.0274    magn:    0.1404    constr:    0.0000
     atom:   40    charge:    0.3893    magn:   -0.0076    constr:    0.0000

     total cpu time spent up to now is     1394.0 secs

     total energy              =   -2735.73740874 Ry
     Harris-Foulkes estimate   =   -2735.67177067 Ry
     estimated scf accuracy    <       0.08379061 Ry

     total magnetization       =    18.02 Bohr mag/cell
     absolute magnetization    =    18.78 Bohr mag/cell

     iteration #  9     ecut=    40.42 Ry     beta=0.10
     Davidson diagonalization with overlap
     ethr =  2.22E-05,  avg # of iterations =  7.3

     negative rho (up, down):  7.539E-03 1.247E-02
 
     Adding external electric field

     Computed dipole along edir(3) : 
        Dipole               -0.0669 Ry au,         -0.1700 Debye
        Dipole field         -0.0001 Ry au
 
        Potential amp.        0.0077 Ry
        Total length         77.0108 bohr
 
 
     Adding external electric field

     Computed dipole along edir(3) : 
        Dipole               -0.0669 Ry au,         -0.1700 Debye
        Dipole field         -0.0001 Ry au
 
        Potential amp.        0.0077 Ry
        Total length         77.0108 bohr
 
 
     Magnetic moment per site:
     atom:    1    charge:    0.7193    magn:    0.0221    constr:    0.0000
     atom:    2    charge:    0.7172    magn:    0.0499    constr:    0.0000
     atom:    3    charge:    0.7159    magn:    0.0490    constr:    0.0000
     atom:    4    charge:    0.7158    magn:    0.0525    constr:    0.0000
     atom:    5    charge:    0.7157    magn:    0.0524    constr:    0.0000
     atom:    6    charge:    0.7159    magn:    0.0544    constr:    0.0000
     atom:    7    charge:    0.7146    magn:    0.0473    constr:    0.0000
     atom:    8    charge:    0.7143    magn:    0.0512    constr:    0.0000
     atom:    9    charge:    0.7147    magn:    0.0516    constr:    0.0000
     atom:   10    charge:    0.7179    magn:    0.0558    constr:    0.0000
     atom:   11    charge:    0.7183    magn:    0.0467    constr:    0.0000
     atom:   12    charge:    0.7157    magn:    0.0492    constr:    0.0000
     atom:   13    charge:    0.7182    magn:    0.0584    constr:    0.0000
     atom:   14    charge:    0.7178    magn:    0.0584    constr:    0.0000
     atom:   15    charge:    0.7177    magn:    0.0583    constr:    0.0000
     atom:   16    charge:    0.7163    magn:    0.0591    constr:    0.0000
     atom:   17    charge:    0.7177    magn:    0.0598    constr:    0.0000
     atom:   18    charge:    0.7179    magn:    0.0600    constr:    0.0000
     atom:   19    charge:    0.7159    magn:    0.0586    constr:    0.0000
     atom:   20    charge:    0.7163    magn:    0.0541    constr:    0.0000
     atom:   21    charge:    0.7160    magn:    0.0601    constr:    0.0000
     atom:   22    charge:    0.7159    magn:    0.0593    constr:    0.0000
     atom:   23    charge:    0.7158    magn:    0.0589    constr:    0.0000
     atom:   24    charge:    0.7158    magn:    0.0592    constr:    0.0000
     atom:   25    charge:    0.7160    magn:    0.0597    constr:    0.0000
     atom:   26    charge:    0.7159    magn:    0.0593    constr:    0.0000
     atom:   27    charge:    0.7160    magn:    0.0594    constr:    0.0000
     atom:   28    charge:    0.7146    magn:    0.0529    constr:    0.0000
     atom:   29    charge:    0.7146    magn:    0.0533    constr:    0.0000
     atom:   30    charge:    0.7144    magn:    0.0553    constr:    0.0000
     atom:   31    charge:    0.7149    magn:    0.0556    constr:    0.0000
     atom:   32    charge:    0.7147    magn:    0.0555    constr:    0.0000
     atom:   33    charge:    0.7149    magn:    0.0559    constr:    0.0000
     atom:   34    charge:    0.7152    magn:    0.0542    constr:    0.0000
     atom:   35    charge:    0.7151    magn:    0.0540    constr:    0.0000
     atom:   36    charge:    0.7150    magn:    0.0545    constr:    0.0000
     atom:   37    charge:    0.6401    magn:    0.0239    constr:    0.0000
     atom:   38    charge:    2.0019    magn:    0.0777    constr:    0.0000
     atom:   39    charge:    2.0137    magn:    0.0566    constr:    0.0000
     atom:   40    charge:    0.4001    magn:   -0.0118    constr:    0.0000

     total cpu time spent up to now is     1548.9 secs

     total energy              =   -2735.78578061 Ry
     Harris-Foulkes estimate   =   -2735.74376841 Ry
     estimated scf accuracy    <       0.05146608 Ry

     total magnetization       =    16.09 Bohr mag/cell
     absolute magnetization    =    17.00 Bohr mag/cell

     iteration # 10     ecut=    40.42 Ry     beta=0.10
     Davidson diagonalization with overlap
     c_bands:  1 eigenvalues not converged
     ethr =  1.37E-05,  avg # of iterations =  6.1

     negative rho (up, down):  7.825E-03 1.275E-02
 
     Adding external electric field

     Computed dipole along edir(3) : 
        Dipole               -0.0789 Ry au,         -0.2005 Debye
        Dipole field         -0.0001 Ry au
 
        Potential amp.        0.0091 Ry
        Total length         77.0108 bohr
 
 
     Adding external electric field

     Computed dipole along edir(3) : 
        Dipole               -0.0789 Ry au,         -0.2005 Debye
        Dipole field         -0.0001 Ry au
 
        Potential amp.        0.0091 Ry
        Total length         77.0108 bohr
 
 
     Magnetic moment per site:
     atom:    1    charge:    0.7208    magn:    0.0143    constr:    0.0000
     atom:    2    charge:    0.7181    magn:    0.0421    constr:    0.0000
     atom:    3    charge:    0.7171    magn:    0.0408    constr:    0.0000
     atom:    4    charge:    0.7173    magn:    0.0452    constr:    0.0000
     atom:    5    charge:    0.7172    magn:    0.0450    constr:    0.0000
     atom:    6    charge:    0.7176    magn:    0.0472    constr:    0.0000
     atom:    7    charge:    0.7163    magn:    0.0395    constr:    0.0000
     atom:    8    charge:    0.7160    magn:    0.0436    constr:    0.0000
     atom:    9    charge:    0.7165    magn:    0.0440    constr:    0.0000
     atom:   10    charge:    0.7202    magn:    0.0487    constr:    0.0000
     atom:   11    charge:    0.7204    magn:    0.0395    constr:    0.0000
     atom:   12    charge:    0.7180    magn:    0.0417    constr:    0.0000
     atom:   13    charge:    0.7204    magn:    0.0516    constr:    0.0000
     atom:   14    charge:    0.7199    magn:    0.0516    constr:    0.0000
     atom:   15    charge:    0.7199    magn:    0.0515    constr:    0.0000
     atom:   16    charge:    0.7186    magn:    0.0525    constr:    0.0000
     atom:   17    charge:    0.7198    magn:    0.0532    constr:    0.0000
     atom:   18    charge:    0.7201    magn:    0.0533    constr:    0.0000
     atom:   19    charge:    0.7182    magn:    0.0518    constr:    0.0000
     atom:   20    charge:    0.7185    magn:    0.0472    constr:    0.0000
     atom:   21    charge:    0.7183    magn:    0.0535    constr:    0.0000
     atom:   22    charge:    0.7182    magn:    0.0525    constr:    0.0000
     atom:   23    charge:    0.7181    magn:    0.0521    constr:    0.0000
     atom:   24    charge:    0.7181    magn:    0.0526    constr:    0.0000
     atom:   25    charge:    0.7182    magn:    0.0530    constr:    0.0000
     atom:   26    charge:    0.7181    magn:    0.0526    constr:    0.0000
     atom:   27    charge:    0.7182    magn:    0.0528    constr:    0.0000
     atom:   28    charge:    0.7165    magn:    0.0456    constr:    0.0000
     atom:   29    charge:    0.7165    magn:    0.0460    constr:    0.0000
     atom:   30    charge:    0.7164    magn:    0.0480    constr:    0.0000
     atom:   31    charge:    0.7166    magn:    0.0487    constr:    0.0000
     atom:   32    charge:    0.7166    magn:    0.0486    constr:    0.0000
     atom:   33    charge:    0.7166    magn:    0.0491    constr:    0.0000
     atom:   34    charge:    0.7163    magn:    0.0472    constr:    0.0000
     atom:   35    charge:    0.7165    magn:    0.0469    constr:    0.0000
     atom:   36    charge:    0.7163    magn:    0.0476    constr:    0.0000
     atom:   37    charge:    0.6406    magn:    0.0075    constr:    0.0000
     atom:   38    charge:    1.9986    magn:    0.0414    constr:    0.0000
     atom:   39    charge:    2.0084    magn:    0.0218    constr:    0.0000
     atom:   40    charge:    0.4039    magn:   -0.0121    constr:    0.0000

     total cpu time spent up to now is     1699.3 secs

     total energy              =   -2735.80458058 Ry
     Harris-Foulkes estimate   =   -2735.79474366 Ry
     estimated scf accuracy    <       0.01971366 Ry

     total magnetization       =    13.20 Bohr mag/cell
     absolute magnetization    =    14.32 Bohr mag/cell

     iteration # 11     ecut=    40.42 Ry     beta=0.10
     Davidson diagonalization with overlap
     ethr =  5.23E-06,  avg # of iterations =  6.1

     negative rho (up, down):  7.910E-03 1.237E-02
 
     Adding external electric field

     Computed dipole along edir(3) : 
        Dipole               -0.0807 Ry au,         -0.2051 Debye
        Dipole field         -0.0001 Ry au
 
        Potential amp.        0.0093 Ry
        Total length         77.0108 bohr
 
 
     Adding external electric field

     Computed dipole along edir(3) : 
        Dipole               -0.0807 Ry au,         -0.2051 Debye
        Dipole field         -0.0001 Ry au
 
        Potential amp.        0.0093 Ry
        Total length         77.0108 bohr
 
 
     Magnetic moment per site:
     atom:    1    charge:    0.7220    magn:    0.0091    constr:    0.0000
     atom:    2    charge:    0.7190    magn:    0.0356    constr:    0.0000
     atom:    3    charge:    0.7180    magn:    0.0339    constr:    0.0000
     atom:    4    charge:    0.7183    magn:    0.0390    constr:    0.0000
     atom:    5    charge:    0.7183    magn:    0.0389    constr:    0.0000
     atom:    6    charge:    0.7187    magn:    0.0411    constr:    0.0000
     atom:    7    charge:    0.7174    magn:    0.0331    constr:    0.0000
     atom:    8    charge:    0.7172    magn:    0.0372    constr:    0.0000
     atom:    9    charge:    0.7176    magn:    0.0376    constr:    0.0000
     atom:   10    charge:    0.7213    magn:    0.0427    constr:    0.0000
     atom:   11    charge:    0.7215    magn:    0.0338    constr:    0.0000
     atom:   12    charge:    0.7192    magn:    0.0357    constr:    0.0000
     atom:   13    charge:    0.7216    magn:    0.0458    constr:    0.0000
     atom:   14    charge:    0.7211    magn:    0.0459    constr:    0.0000
     atom:   15    charge:    0.7211    magn:    0.0458    constr:    0.0000
     atom:   16    charge:    0.7199    magn:    0.0470    constr:    0.0000
     atom:   17    charge:    0.7212    magn:    0.0477    constr:    0.0000
     atom:   18    charge:    0.7214    magn:    0.0478    constr:    0.0000
     atom:   19    charge:    0.7195    magn:    0.0462    constr:    0.0000
     atom:   20    charge:    0.7197    magn:    0.0414    constr:    0.0000
     atom:   21    charge:    0.7196    magn:    0.0479    constr:    0.0000
     atom:   22    charge:    0.7196    magn:    0.0468    constr:    0.0000
     atom:   23    charge:    0.7195    magn:    0.0464    constr:    0.0000
     atom:   24    charge:    0.7195    magn:    0.0470    constr:    0.0000
     atom:   25    charge:    0.7195    magn:    0.0473    constr:    0.0000
     atom:   26    charge:    0.7194    magn:    0.0471    constr:    0.0000
     atom:   27    charge:    0.7195    magn:    0.0472    constr:    0.0000
     atom:   28    charge:    0.7177    magn:    0.0394    constr:    0.0000
     atom:   29    charge:    0.7176    magn:    0.0398    constr:    0.0000
     atom:   30    charge:    0.7176    magn:    0.0418    constr:    0.0000
     atom:   31    charge:    0.7176    magn:    0.0430    constr:    0.0000
     atom:   32    charge:    0.7175    magn:    0.0429    constr:    0.0000
     atom:   33    charge:    0.7176    magn:    0.0433    constr:    0.0000
     atom:   34    charge:    0.7170    magn:    0.0413    constr:    0.0000
     atom:   35    charge:    0.7170    magn:    0.0411    constr:    0.0000
     atom:   36    charge:    0.7169    magn:    0.0418    constr:    0.0000
     atom:   37    charge:    0.6393    magn:   -0.0027    constr:    0.0000
     atom:   38    charge:    1.9978    magn:    0.0171    constr:    0.0000
     atom:   39    charge:    2.0089    magn:   -0.0002    constr:    0.0000
     atom:   40    charge:    0.4053    magn:   -0.0111    constr:    0.0000

     total cpu time spent up to now is     1850.1 secs

     total energy              =   -2735.81229572 Ry
     Harris-Foulkes estimate   =   -2735.80716736 Ry
     estimated scf accuracy    <       0.01063314 Ry

     total magnetization       =    11.63 Bohr mag/cell
     absolute magnetization    =    12.86 Bohr mag/cell

     iteration # 12     ecut=    40.42 Ry     beta=0.10
     Davidson diagonalization with overlap
     ethr =  2.82E-06,  avg # of iterations =  3.6

     negative rho (up, down):  7.843E-03 1.163E-02
 
     Adding external electric field

     Computed dipole along edir(3) : 
        Dipole               -0.0727 Ry au,         -0.1847 Debye
        Dipole field         -0.0001 Ry au
 
        Potential amp.        0.0084 Ry
        Total length         77.0108 bohr
 
 
     Adding external electric field

     Computed dipole along edir(3) : 
        Dipole               -0.0727 Ry au,         -0.1847 Debye
        Dipole field         -0.0001 Ry au
 
        Potential amp.        0.0084 Ry
        Total length         77.0108 bohr
 
 
     Magnetic moment per site:
     atom:    1    charge:    0.7228    magn:    0.0057    constr:    0.0000
     atom:    2    charge:    0.7194    magn:    0.0304    constr:    0.0000
     atom:    3    charge:    0.7184    magn:    0.0284    constr:    0.0000
     atom:    4    charge:    0.7188    magn:    0.0341    constr:    0.0000
     atom:    5    charge:    0.7188    magn:    0.0339    constr:    0.0000
     atom:    6    charge:    0.7193    magn:    0.0361    constr:    0.0000
     atom:    7    charge:    0.7180    magn:    0.0280    constr:    0.0000
     atom:    8    charge:    0.7178    magn:    0.0320    constr:    0.0000
     atom:    9    charge:    0.7182    magn:    0.0324    constr:    0.0000
     atom:   10    charge:    0.7217    magn:    0.0379    constr:    0.0000
     atom:   11    charge:    0.7219    magn:    0.0295    constr:    0.0000
     atom:   12    charge:    0.7197    magn:    0.0310    constr:    0.0000
     atom:   13    charge:    0.7221    magn:    0.0411    constr:    0.0000
     atom:   14    charge:    0.7216    magn:    0.0413    constr:    0.0000
     atom:   15    charge:    0.7216    magn:    0.0411    constr:    0.0000
     atom:   16    charge:    0.7204    magn:    0.0425    constr:    0.0000
     atom:   17    charge:    0.7217    magn:    0.0432    constr:    0.0000
     atom:   18    charge:    0.7219    magn:    0.0433    constr:    0.0000
     atom:   19    charge:    0.7201    magn:    0.0415    constr:    0.0000
     atom:   20    charge:    0.7203    magn:    0.0369    constr:    0.0000
     atom:   21    charge:    0.7202    magn:    0.0433    constr:    0.0000
     atom:   22    charge:    0.7200    magn:    0.0423    constr:    0.0000
     atom:   23    charge:    0.7200    magn:    0.0418    constr:    0.0000
     atom:   24    charge:    0.7200    magn:    0.0425    constr:    0.0000
     atom:   25    charge:    0.7199    magn:    0.0426    constr:    0.0000
     atom:   26    charge:    0.7199    magn:    0.0427    constr:    0.0000
     atom:   27    charge:    0.7199    magn:    0.0426    constr:    0.0000
     atom:   28    charge:    0.7180    magn:    0.0343    constr:    0.0000
     atom:   29    charge:    0.7181    magn:    0.0347    constr:    0.0000
     atom:   30    charge:    0.7180    magn:    0.0367    constr:    0.0000
     atom:   31    charge:    0.7180    magn:    0.0384    constr:    0.0000
     atom:   32    charge:    0.7179    magn:    0.0382    constr:    0.0000
     atom:   33    charge:    0.7179    magn:    0.0386    constr:    0.0000
     atom:   34    charge:    0.7172    magn:    0.0365    constr:    0.0000
     atom:   35    charge:    0.7172    magn:    0.0364    constr:    0.0000
     atom:   36    charge:    0.7171    magn:    0.0372    constr:    0.0000
     atom:   37    charge:    0.6377    magn:   -0.0087    constr:    0.0000
     atom:   38    charge:    1.9986    magn:    0.0014    constr:    0.0000
     atom:   39    charge:    2.0118    magn:   -0.0134    constr:    0.0000
     atom:   40    charge:    0.4054    magn:   -0.0097    constr:    0.0000

     total cpu time spent up to now is     1988.7 secs

     total energy              =   -2735.81708611 Ry
     Harris-Foulkes estimate   =   -2735.81392833 Ry
     estimated scf accuracy    <       0.00665499 Ry

     total magnetization       =    10.28 Bohr mag/cell
     absolute magnetization    =    11.54 Bohr mag/cell

     iteration # 13     ecut=    40.42 Ry     beta=0.10
     Davidson diagonalization with overlap
     ethr =  1.77E-06,  avg # of iterations =  4.1

     negative rho (up, down):  7.429E-03 1.064E-02
 
     Adding external electric field

     Computed dipole along edir(3) : 
        Dipole               -0.0749 Ry au,         -0.1904 Debye
        Dipole field         -0.0001 Ry au
 
        Potential amp.        0.0087 Ry
        Total length         77.0108 bohr
 
 
     Adding external electric field

     Computed dipole along edir(3) : 
        Dipole               -0.0749 Ry au,         -0.1904 Debye
        Dipole field         -0.0001 Ry au
 
        Potential amp.        0.0087 Ry
        Total length         77.0108 bohr
 
 
     Magnetic moment per site:
     atom:    1    charge:    0.7229    magn:    0.0045    constr:    0.0000
     atom:    2    charge:    0.7196    magn:    0.0277    constr:    0.0000
     atom:    3    charge:    0.7185    magn:    0.0256    constr:    0.0000
     atom:    4    charge:    0.7189    magn:    0.0315    constr:    0.0000
     atom:    5    charge:    0.7190    magn:    0.0313    constr:    0.0000
     atom:    6    charge:    0.7194    magn:    0.0335    constr:    0.0000
     atom:    7    charge:    0.7181    magn:    0.0254    constr:    0.0000
     atom:    8    charge:    0.7179    magn:    0.0293    constr:    0.0000
     atom:    9    charge:    0.7183    magn:    0.0297    constr:    0.0000
     atom:   10    charge:    0.7218    magn:    0.0353    constr:    0.0000
     atom:   11    charge:    0.7219    magn:    0.0273    constr:    0.0000
     atom:   12    charge:    0.7197    magn:    0.0287    constr:    0.0000
     atom:   13    charge:    0.7222    magn:    0.0387    constr:    0.0000
     atom:   14    charge:    0.7217    magn:    0.0389    constr:    0.0000
     atom:   15    charge:    0.7217    magn:    0.0386    constr:    0.0000
     atom:   16    charge:    0.7205    magn:    0.0401    constr:    0.0000
     atom:   17    charge:    0.7218    magn:    0.0408    constr:    0.0000
     atom:   18    charge:    0.7220    magn:    0.0409    constr:    0.0000
     atom:   19    charge:    0.7203    magn:    0.0391    constr:    0.0000
     atom:   20    charge:    0.7204    magn:    0.0345    constr:    0.0000
     atom:   21    charge:    0.7204    magn:    0.0408    constr:    0.0000
     atom:   22    charge:    0.7202    magn:    0.0398    constr:    0.0000
     atom:   23    charge:    0.7201    magn:    0.0394    constr:    0.0000
     atom:   24    charge:    0.7201    magn:    0.0401    constr:    0.0000
     atom:   25    charge:    0.7200    magn:    0.0402    constr:    0.0000
     atom:   26    charge:    0.7199    magn:    0.0403    constr:    0.0000
     atom:   27    charge:    0.7201    magn:    0.0402    constr:    0.0000
     atom:   28    charge:    0.7182    magn:    0.0317    constr:    0.0000
     atom:   29    charge:    0.7182    magn:    0.0321    constr:    0.0000
     atom:   30    charge:    0.7182    magn:    0.0341    constr:    0.0000
     atom:   31    charge:    0.7181    magn:    0.0359    constr:    0.0000
     atom:   32    charge:    0.7180    magn:    0.0358    constr:    0.0000
     atom:   33    charge:    0.7180    magn:    0.0362    constr:    0.0000
     atom:   34    charge:    0.7173    magn:    0.0341    constr:    0.0000
     atom:   35    charge:    0.7172    magn:    0.0339    constr:    0.0000
     atom:   36    charge:    0.7171    magn:    0.0348    constr:    0.0000
     atom:   37    charge:    0.6371    magn:   -0.0104    constr:    0.0000
     atom:   38    charge:    1.9987    magn:   -0.0040    constr:    0.0000
     atom:   39    charge:    2.0127    magn:   -0.0172    constr:    0.0000
     atom:   40    charge:    0.4051    magn:   -0.0084    constr:    0.0000

     total cpu time spent up to now is     2130.1 secs

     total energy              =   -2735.82007704 Ry
     Harris-Foulkes estimate   =   -2735.81817599 Ry
     estimated scf accuracy    <       0.00467699 Ry

     total magnetization       =     9.18 Bohr mag/cell
     absolute magnetization    =    10.43 Bohr mag/cell

     iteration # 14     ecut=    40.42 Ry     beta=0.10
     Davidson diagonalization with overlap
     ethr =  1.24E-06,  avg # of iterations =  1.6

     negative rho (up, down):  6.949E-03 9.690E-03
 
     Adding external electric field

     Computed dipole along edir(3) : 
        Dipole               -0.0838 Ry au,         -0.2130 Debye
        Dipole field         -0.0001 Ry au
 
        Potential amp.        0.0097 Ry
        Total length         77.0108 bohr
 
 
     Adding external electric field

     Computed dipole along edir(3) : 
        Dipole               -0.0838 Ry au,         -0.2130 Debye
        Dipole field         -0.0001 Ry au
 
        Potential amp.        0.0097 Ry
        Total length         77.0108 bohr
 
 
     Magnetic moment per site:
     atom:    1    charge:    0.7230    magn:    0.0039    constr:    0.0000
     atom:    2    charge:    0.7197    magn:    0.0259    constr:    0.0000
     atom:    3    charge:    0.7184    magn:    0.0236    constr:    0.0000
     atom:    4    charge:    0.7189    magn:    0.0298    constr:    0.0000
     atom:    5    charge:    0.7191    magn:    0.0295    constr:    0.0000
     atom:    6    charge:    0.7195    magn:    0.0317    constr:    0.0000
     atom:    7    charge:    0.7182    magn:    0.0237    constr:    0.0000
     atom:    8    charge:    0.7180    magn:    0.0274    constr:    0.0000
     atom:    9    charge:    0.7184    magn:    0.0279    constr:    0.0000
     atom:   10    charge:    0.7218    magn:    0.0336    constr:    0.0000
     atom:   11    charge:    0.7219    magn:    0.0259    constr:    0.0000
     atom:   12    charge:    0.7197    magn:    0.0271    constr:    0.0000
     atom:   13    charge:    0.7221    magn:    0.0369    constr:    0.0000
     atom:   14    charge:    0.7217    magn:    0.0372    constr:    0.0000
     atom:   15    charge:    0.7217    magn:    0.0369    constr:    0.0000
     atom:   16    charge:    0.7205    magn:    0.0385    constr:    0.0000
     atom:   17    charge:    0.7218    magn:    0.0391    constr:    0.0000
     atom:   18    charge:    0.7220    magn:    0.0392    constr:    0.0000
     atom:   19    charge:    0.7203    magn:    0.0374    constr:    0.0000
     atom:   20    charge:    0.7204    magn:    0.0329    constr:    0.0000
     atom:   21    charge:    0.7203    magn:    0.0391    constr:    0.0000
     atom:   22    charge:    0.7202    magn:    0.0381    constr:    0.0000
     atom:   23    charge:    0.7201    magn:    0.0378    constr:    0.0000
     atom:   24    charge:    0.7201    magn:    0.0384    constr:    0.0000
     atom:   25    charge:    0.7200    magn:    0.0385    constr:    0.0000
     atom:   26    charge:    0.7200    magn:    0.0387    constr:    0.0000
     atom:   27    charge:    0.7200    magn:    0.0386    constr:    0.0000
     atom:   28    charge:    0.7182    magn:    0.0299    constr:    0.0000
     atom:   29    charge:    0.7182    magn:    0.0303    constr:    0.0000
     atom:   30    charge:    0.7182    magn:    0.0322    constr:    0.0000
     atom:   31    charge:    0.7180    magn:    0.0342    constr:    0.0000
     atom:   32    charge:    0.7180    magn:    0.0341    constr:    0.0000
     atom:   33    charge:    0.7180    magn:    0.0345    constr:    0.0000
     atom:   34    charge:    0.7172    magn:    0.0324    constr:    0.0000
     atom:   35    charge:    0.7172    magn:    0.0323    constr:    0.0000
     atom:   36    charge:    0.7171    magn:    0.0331    constr:    0.0000
     atom:   37    charge:    0.6368    magn:   -0.0109    constr:    0.0000
     atom:   38    charge:    1.9988    magn:   -0.0066    constr:    0.0000
     atom:   39    charge:    2.0130    magn:   -0.0184    constr:    0.0000
     atom:   40    charge:    0.4048    magn:   -0.0074    constr:    0.0000

     total cpu time spent up to now is     2260.8 secs

     total energy              =   -2735.82179043 Ry
     Harris-Foulkes estimate   =   -2735.82038223 Ry
     estimated scf accuracy    <       0.00386864 Ry

     total magnetization       =     8.61 Bohr mag/cell
     absolute magnetization    =     9.83 Bohr mag/cell

     iteration # 15     ecut=    40.42 Ry     beta=0.10
     Davidson diagonalization with overlap
     ethr =  1.03E-06,  avg # of iterations =  2.7

     negative rho (up, down):  7.249E-03 8.144E-03
 
     Adding external electric field

     Computed dipole along edir(3) : 
        Dipole               -0.0996 Ry au,         -0.2532 Debye
        Dipole field         -0.0001 Ry au
 
        Potential amp.        0.0115 Ry
        Total length         77.0108 bohr
 
 
     Adding external electric field

     Computed dipole along edir(3) : 
        Dipole               -0.0996 Ry au,         -0.2532 Debye
        Dipole field         -0.0001 Ry au
 
        Potential amp.        0.0115 Ry
        Total length         77.0108 bohr
 
 
     Magnetic moment per site:
     atom:    1    charge:    0.7228    magn:    0.0025    constr:    0.0000
     atom:    2    charge:    0.7196    magn:    0.0196    constr:    0.0000
     atom:    3    charge:    0.7182    magn:    0.0169    constr:    0.0000
     atom:    4    charge:    0.7188    magn:    0.0236    constr:    0.0000
     atom:    5    charge:    0.7188    magn:    0.0232    constr:    0.0000
     atom:    6    charge:    0.7192    magn:    0.0252    constr:    0.0000
     atom:    7    charge:    0.7180    magn:    0.0178    constr:    0.0000
     atom:    8    charge:    0.7176    magn:    0.0209    constr:    0.0000
     atom:    9    charge:    0.7181    magn:    0.0213    constr:    0.0000
     atom:   10    charge:    0.7214    magn:    0.0272    constr:    0.0000
     atom:   11    charge:    0.7215    magn:    0.0210    constr:    0.0000
     atom:   12    charge:    0.7193    magn:    0.0216    constr:    0.0000
     atom:   13    charge:    0.7217    magn:    0.0307    constr:    0.0000
     atom:   14    charge:    0.7212    magn:    0.0311    constr:    0.0000
     atom:   15    charge:    0.7213    magn:    0.0308    constr:    0.0000
     atom:   16    charge:    0.7201    magn:    0.0325    constr:    0.0000
     atom:   17    charge:    0.7214    magn:    0.0331    constr:    0.0000
     atom:   18    charge:    0.7216    magn:    0.0332    constr:    0.0000
     atom:   19    charge:    0.7198    magn:    0.0313    constr:    0.0000
     atom:   20    charge:    0.7200    magn:    0.0271    constr:    0.0000
     atom:   21    charge:    0.7199    magn:    0.0328    constr:    0.0000
     atom:   22    charge:    0.7197    magn:    0.0320    constr:    0.0000
     atom:   23    charge:    0.7196    magn:    0.0317    constr:    0.0000
     atom:   24    charge:    0.7196    magn:    0.0324    constr:    0.0000
     atom:   25    charge:    0.7195    magn:    0.0322    constr:    0.0000
     atom:   26    charge:    0.7195    magn:    0.0327    constr:    0.0000
     atom:   27    charge:    0.7195    magn:    0.0325    constr:    0.0000
     atom:   28    charge:    0.7179    magn:    0.0235    constr:    0.0000
     atom:   29    charge:    0.7179    magn:    0.0240    constr:    0.0000
     atom:   30    charge:    0.7178    magn:    0.0257    constr:    0.0000
     atom:   31    charge:    0.7177    magn:    0.0282    constr:    0.0000
     atom:   32    charge:    0.7176    magn:    0.0281    constr:    0.0000
     atom:   33    charge:    0.7177    magn:    0.0284    constr:    0.0000
     atom:   34    charge:    0.7170    magn:    0.0264    constr:    0.0000
     atom:   35    charge:    0.7169    magn:    0.0263    constr:    0.0000
     atom:   36    charge:    0.7169    magn:    0.0273    constr:    0.0000
     atom:   37    charge:    0.6361    magn:   -0.0106    constr:    0.0000
     atom:   38    charge:    1.9990    magn:   -0.0115    constr:    0.0000
     atom:   39    charge:    2.0137    magn:   -0.0184    constr:    0.0000
     atom:   40    charge:    0.4030    magn:   -0.0034    constr:    0.0000

     total cpu time spent up to now is     2395.5 secs

     total energy              =   -2735.82543956 Ry
     Harris-Foulkes estimate   =   -2735.82194790 Ry
     estimated scf accuracy    <       0.00372742 Ry

     total magnetization       =     8.21 Bohr mag/cell
     absolute magnetization    =     9.40 Bohr mag/cell

     iteration # 16     ecut=    40.42 Ry     beta=0.10
     Davidson diagonalization with overlap
     ethr =  9.89E-07,  avg # of iterations =  4.6

     negative rho (up, down):  7.908E-03 6.709E-03
 
     Adding external electric field

     Computed dipole along edir(3) : 
        Dipole               -0.1090 Ry au,         -0.2771 Debye
        Dipole field         -0.0001 Ry au
 
        Potential amp.        0.0126 Ry
        Total length         77.0108 bohr
 
 
     Adding external electric field

     Computed dipole along edir(3) : 
        Dipole               -0.1090 Ry au,         -0.2771 Debye
        Dipole field         -0.0001 Ry au
 
        Potential amp.        0.0126 Ry
        Total length         77.0108 bohr
 
 
     Magnetic moment per site:
     atom:    1    charge:    0.7227    magn:    0.0010    constr:    0.0000
     atom:    2    charge:    0.7195    magn:    0.0121    constr:    0.0000
     atom:    3    charge:    0.7178    magn:    0.0090    constr:    0.0000
     atom:    4    charge:    0.7184    magn:    0.0162    constr:    0.0000
     atom:    5    charge:    0.7186    magn:    0.0158    constr:    0.0000
     atom:    6    charge:    0.7189    magn:    0.0175    constr:    0.0000
     atom:    7    charge:    0.7178    magn:    0.0109    constr:    0.0000
     atom:    8    charge:    0.7173    magn:    0.0133    constr:    0.0000
     atom:    9    charge:    0.7178    magn:    0.0137    constr:    0.0000
     atom:   10    charge:    0.7209    magn:    0.0196    constr:    0.0000
     atom:   11    charge:    0.7211    magn:    0.0153    constr:    0.0000
     atom:   12    charge:    0.7188    magn:    0.0151    constr:    0.0000
     atom:   13    charge:    0.7212    magn:    0.0233    constr:    0.0000
     atom:   14    charge:    0.7207    magn:    0.0238    constr:    0.0000
     atom:   15    charge:    0.7207    magn:    0.0233    constr:    0.0000
     atom:   16    charge:    0.7195    magn:    0.0254    constr:    0.0000
     atom:   17    charge:    0.7208    magn:    0.0259    constr:    0.0000
     atom:   18    charge:    0.7210    magn:    0.0259    constr:    0.0000
     atom:   19    charge:    0.7193    magn:    0.0239    constr:    0.0000
     atom:   20    charge:    0.7195    magn:    0.0203    constr:    0.0000
     atom:   21    charge:    0.7194    magn:    0.0252    constr:    0.0000
     atom:   22    charge:    0.7192    magn:    0.0247    constr:    0.0000
     atom:   23    charge:    0.7191    magn:    0.0245    constr:    0.0000
     atom:   24    charge:    0.7191    magn:    0.0251    constr:    0.0000
     atom:   25    charge:    0.7190    magn:    0.0248    constr:    0.0000
     atom:   26    charge:    0.7189    magn:    0.0256    constr:    0.0000
[...]
             -0.915588236883769E+02
             -0.596431844612264E+02
             -0.561926467824460E+02
             -0.600553369913014E+02
              0.643648428555540E+02
             -0.398829683054123E+02
             -0.134981701244109E+03
              0.561408475676922E+02
             -0.344040432434645E+02
             -0.105727735172622E+03
              0.125994730897511E+03
             -0.283652163322670E+02
              0.312195293720697E+02
              0.606013348387311E+02
             -0.390152107417407E+01
              0.334410657796618E+02
              0.590977327492521E+01
              0.287886717202106E-01
             -0.194910436061111E+02
             -0.941892121438426E+02
              0.174398418588812E+02
             -0.173858165769142E+03
              0.817786471720415E+02
             -0.587536247079610E+02
             -0.206197647607988E+02
             -0.214627693823434E+02
              0.873519439838110E+01
             -0.304740734692855E+02
              0.404353404076732E+02
             -0.692373314627216E+02
              0.494447029911383E+02
              0.482113129350788E+02
              0.236277817013319E+02
              0.124628199662197E+02
              0.259336101829263E+02
              0.773917681890714E+01
              0.421805065966242E+02
             -0.109300661129673E+02
             -0.771039534820858E+02
              0.104843544370584E+02
             -0.208250659733573E+02
             -0.228806558307991E+01
              0.658070380527980E+02
             -0.110123764692114E+03
             -0.222051425307950E+01
              0.102465421475017E+01
              0.131350595078110E+02
              0.429152636483454E+02
             -0.167045110446438E+02
              0.111935511060245E+03
              0.655954942016875E+02
             -0.253121552089248E+02
             -0.136337060232179E+02
              0.119587252447775E+01
              0.103256532394784E+03
             -0.786617161543847E+02
             -0.140965246979383E+03
              0.403283207805114E+02
             -0.213042536549618E+02
             -0.167919189752639E+02
              0.183080535626329E+02
              0.103763694636234E+03
              0.626055020691250E+02
             -0.210880213825707E+02
             -0.663258228911479E+02
             -0.676097957662108E+01
              0.411114431886092E+02
             -0.143735256705944E+02
             -0.100605865330900E+03
             -0.273955845844188E+01
             -0.118118058941072E+03
             -0.630550091216023E+02
              0.102054386482058E+03
             -0.642668514746812E+02
             -0.846119812020265E+02
             -0.684943500498402E+02
             -0.460159992124987E+02
              0.445425170268445E+02
              0.109457750783453E+03
             -0.430420042562929E+01
              0.372466753333313E+02
             -0.234874708113901E+02
             -0.923228908487831E+02
              0.619112585035928E+02
             -0.590750321869136E+02
              0.431701796495681E+02
              0.514006477370202E+02
             -0.873964635008974E+01
              0.532602417481671E+02
              0.588250356815562E+02
              0.133213102257239E+03
             -0.214306402109710E+02
             -0.591162486626077E+02
             -0.822031339806018E+02
             -0.164166125328604E+02
             -0.294562345364009E+02
              0.138336260951110E+03
             -0.593194638122267E+02
              0.135833203923028E+02
              0.133660248773701E+02
             -0.358065816324124E+02
             -0.105317370107926E+03
             -0.924390058390605E+01
              0.130322150771389E+03
              0.112331600833709E+02
              0.107580471814989E+02
             -0.690246416023289E+02
             -0.814730803128634E+02
             -0.691979784480603E+01
              0.667897963640795E+02
             -0.288260031039396E+02
              0.144503458418475E+03
             -0.562450860458129E+02
              0.195570512409672E+02
             -0.316695050555677E+02
             -0.962843269912390E+02
              0.230521575428236E+01
             -0.668933670888637E+02
             -0.101534292115032E+03
              0.769655006566063E+01
              0.314576347078207E+01
              0.680827206943747E+02
              0.247007547489519E+02
             -0.429980280381278E+02
              0.311734673467498E+02
             -0.106736251011849E+03
             -0.710274690613503E+02
              0.120714506551394E+03
              0.203357599666870E+02
             -0.252499721539396E+02
             -0.472263673451792E+02
             -0.351418081049769E+01
             -0.761886513683237E+01
              0.109660086595640E+03
              0.551297505114290E+02
             -0.225173178841973E+02
             -0.165176859039958E+02
             -0.570999962558716E+02
             -0.282356215304600E+02
             -0.902837484895646E+02
              0.605162563812431E+02
              0.754122967640853E+01
              0.197743304517722E+02
              0.201669068316899E+02
             -0.719883017566687E+00
             -0.218628267783230E+02
             -0.557915940421778E+01
             -0.133490629510210E+03
             -0.306057255273641E+02
             -0.943080744256645E+01
             -0.124850121474739E+02
              0.745390085884941E+02
              0.821177619370972E+02
              0.215958616682798E+02
             -0.129023819302660E+03
              0.866903509493046E+02
             -0.281994458158820E+02
             -0.504397969733459E+02
             -0.115052782434886E+03
             -0.518648998708329E+02
              0.744959336690122E+02
              0.317807100424625E+02
              0.664231340015499E+01
              0.380591931053759E+02
             -0.747805752806887E+02
             -0.559993949985337E+02
              0.685265276769212E+02
              0.516517067745032E+02
              0.699530446632081E+02
             -0.312429772743883E+01
              0.856026316138082E+01
              0.759233895587906E+02
              0.129175455420559E+03
             -0.405683391093102E+02
              0.430854185113360E+02
             -0.138490244600005E+02
             -0.542999065752157E+02
             -0.416511572370516E+02
             -0.387744651486377E+02
             -0.172956927976327E+02
             -0.708961662986818E+02
             -0.299118789701813E+02
             -0.188226801844605E+03
              0.482024159241584E+02
              0.272137269149628E+02
             -0.484999482365377E+01
             -0.515080247020825E+02
             -0.286912219126096E+02
             -0.694344171106941E+02
              0.199473499724292E+02
              0.109391360723380E+03
             -0.326756912367429E+02
             -0.216731984429243E+02
              0.315829778242075E+02
             -0.640973762909231E+02
              0.117846941508875E+03
              0.209729249479252E+02
              0.304839613656410E+02
              0.662703879662962E+02
              0.528006841704348E+01
              0.723750470182302E+02
              0.184133749418426E+02
             -0.149991601714408E+02
              0.105095127268949E+02
              0.214001531195458E+01
              0.975608915420573E+02
              0.135189535010444E+02
              0.157947020464084E+02
             -0.162333935458329E+02
              0.172799798475207E+02
             -0.121536277212635E+03
             -0.443603232479080E+02
             -0.604378224266932E+02
              0.663020348303325E+02
             -0.383654795429252E+02
             -0.885277867461813E+02
              0.725616740394191E+02
             -0.163775787844957E+02
              0.593832536728002E+02
             -0.120418187127702E+03
              0.324674213874133E+02
              0.122127065797440E+02
              0.760607735891199E+01
             -0.101871817554525E+02
             -0.114246518795616E+02
              0.636244971363380E+02
              0.221710112129711E+01
             -0.631967991194946E+02
             -0.226666050032445E+02
              0.377767733393217E+02
             -0.157140694215459E+03
             -0.124863713044290E+03
              0.494828644693627E+01
              0.150864450187348E+02
             -0.542645013045618E+02
             -0.544871151186419E+01
              0.149824222706592E+03
              0.426437099057185E+02
             -0.767253831458970E+02
              0.123809150057814E+02
             -0.132263221865526E+02
              0.134315446285056E+02
             -0.445300346646823E+02
              0.252570857276992E+02
              0.380558749096901E+02
             -0.440864407972356E+01
              0.144585660080688E+03
             -0.187835559458492E+02
             -0.428451533009945E+02
              0.189266042400749E+02
              0.615959002135984E+02
             -0.479293648979793E+02
             -0.458092193051739E+01
              0.128153274386296E+03
             -0.593456544406047E+01
              0.823741053040740E+02
              0.181460895517530E+02
             -0.127845958978563E+02
             -0.410116513985495E+02
              0.767611388663740E+02
             -0.693793364045187E+02
             -0.317737942727399E+01
             -0.221462811295393E+02
             -0.549117121277235E+02
              0.246037049133192E+02
              0.308917607286777E+02
              0.162723027587418E+02
              0.558820903639003E+00
             -0.512100732415217E+02
              0.292681419394074E+02
             -0.837855382238715E+01
             -0.339601078637653E+02
             -0.283676609317696E+02
              0.285771142749967E+02
             -0.745101976022590E+01
             -0.465069471398947E+02
             -0.141288382661322E+03
              0.127104928563109E+02
              0.338520391035716E+02
             -0.517895661682550E+02
             -0.276963956412385E+02
              0.107454471496012E+03
              0.788131674359676E+01
              0.406836967744830E+02
              0.452211472726603E+01
              0.427115233165733E+02
              0.805452333542553E+01
             -0.501539454384528E+02
             -0.104831404451869E+01
              0.123905534091542E+02
              0.356582294377996E+02
              0.105879290799967E+03
              0.677248960117804E+02
              0.418541258097946E+00
              0.219816028072843E+02
              0.818638918165030E+02
              0.316586692971218E+02
             -0.101244220452561E+03
             -0.366500017833970E+02
              0.204659804721482E+02
              0.777000209234245E+01
              0.343060437643492E+02
             -0.731723126878810E+02
              0.137237031104215E+02
              0.504476258752296E+02
              0.668320283449476E+02
             -0.588742461037059E+02
             -0.986177431755584E+01
             -0.293538551314157E+01
             -0.175844243868892E+02
             -0.496663942100991E+02
             -0.293385143195832E+02
             -0.158461790775122E+01
              0.102319553773797E+02
              0.558105798360955E+02
             -0.414502525445527E+02
              0.109564045789386E+03
              0.448648293585107E+02
              0.288896062212766E+02
              0.438548079910575E+02
              0.437252143657829E+02
              0.448854300145269E+02
              0.715239212811722E+02
             -0.578703630730784E+02
              0.827108951725934E+02
             -0.148796069816976E+03
              0.409583587921926E+02
             -0.142346409760577E+03
              0.114161217734802E+03
              0.918508476927743E+02
             -0.151811452952159E+02
             -0.662812693276863E+02
             -0.571231471133034E+02
             -0.836442688682212E+02
             -0.836221379043940E+02
              0.740091224541339E+02
              0.540428827153135E+02
              0.320367178533090E+02
              0.501813724292145E+02
              0.526433080466351E+02
             -0.511612541108219E+02
             -0.270330807035612E+02
              0.780892547729085E+02
             -0.148567103881093E+02
              0.726894610753066E+02
              0.928853079126751E+02
             -0.668427755038584E+01
             -0.940173967720420E+02
             -0.239440719612389E+01
             -0.260430532824576E+01
             -0.116486121562330E+02
             -0.134706066460615E+01
             -0.875587712151867E+02
             -0.293745613407274E+02
              0.689251898988465E+01
              0.105897709475273E+02
              0.624634320001386E+02
             -0.519817712715737E+02
              0.886055728903468E+02
             -0.566057324634687E+02
              0.272175105780969E+02
              0.468505810812419E+02
 
 BEEF-vdW xc energy contributions
           1 :   -1048.13871588901     
           2 :    966.216609943688     
           3 :   -823.484589843226     
           4 :    653.512318094432     
           5 :   -490.910887299535     
           6 :    361.118400028769     
           7 :   -274.673406271393     
           8 :    226.919391896244     
           9 :   -202.827769456856     
          10 :    184.521560320667     
          11 :   -158.573944137469     
          12 :    120.160251947759     
          13 :   -73.0836453405564     
          14 :    26.2326496822993     
          15 :    11.3640063530083     
          16 :   -34.7402592371220     
          17 :    44.6936352013868     
          18 :   -46.7336344373484     
          19 :    48.0167045310150     
          20 :   -53.9456384877385     
          21 :    65.8875947157144     
          22 :   -81.0306983702699     
          23 :    94.1494181434061     
          24 :   -100.376518459802     
          25 :    97.5321203913886     
          26 :   -87.0209066115642     
          27 :    72.9387466911637     
          28 :   -60.0587495103239     
          29 :    51.6577889517353     
          30 :   -48.2431089892816     
          31 :   -105.298750402359     
          32 :   -79.8473371971729     

     Forces acting on atoms (Ry/au):


     negative rho (up, down):  2.830E-03 2.830E-03
     atom    1 type  1   force =    -0.00017370   -0.00011769   -0.00002826
     atom    2 type  1   force =    -0.00001778    0.00003722    0.00017556
     atom    3 type  1   force =     0.00000391   -0.00011124    0.00001203
     atom    4 type  1   force =    -0.00004206   -0.00005167   -0.00016540
     atom    5 type  1   force =    -0.00020736   -0.00023727   -0.00002083
     atom    6 type  1   force =    -0.00016488    0.00002268   -0.00004491
     atom    7 type  1   force =     0.00008504   -0.00015856    0.00003184
     atom    8 type  1   force =    -0.00005860   -0.00005124   -0.00000108
     atom    9 type  1   force =    -0.00000373   -0.00012627   -0.00008751
     atom   10 type  1   force =    -0.00021253   -0.00009537    0.00002118
     atom   11 type  1   force =    -0.00012432   -0.00005868   -0.00014313
     atom   12 type  1   force =     0.00002419    0.00006240   -0.00031087
     atom   13 type  1   force =    -0.00005050   -0.00020958    0.00009549
     atom   14 type  1   force =     0.00003713    0.00004369   -0.00008147
     atom   15 type  1   force =    -0.00003965    0.00003655   -0.00008993
     atom   16 type  1   force =     0.00000616   -0.00018393   -0.00000677
     atom   17 type  1   force =    -0.00000039   -0.00007375   -0.00004185
     atom   18 type  1   force =     0.00002363    0.00009026   -0.00008377
     atom   19 type  1   force =     0.00183009    0.00231693    0.00592011
     atom   20 type  1   force =     0.00106417    0.00382025    0.00544281
     atom   21 type  1   force =     0.00178528   -0.00455218    0.00293453
     atom   22 type  1   force =     0.00380166   -0.00057842    0.00443594
     atom   23 type  1   force =     0.00370103    0.00046328    0.00534642
     atom   24 type  1   force =     0.00383939   -0.00128102    0.00488983
     atom   25 type  1   force =    -0.01041290    0.00015238   -0.00428973
     atom   26 type  1   force =    -0.01118091   -0.00012391   -0.00361042
     atom   27 type  1   force =    -0.01007270   -0.00075828   -0.00434657
     atom   28 type  1   force =    -0.00697718    0.00008761   -0.02825334
     atom   29 type  1   force =    -0.00687911   -0.00062965   -0.02971664
     atom   30 type  1   force =    -0.00678488    0.00129724   -0.02827715
     atom   31 type  1   force =     0.00465058    0.00083308   -0.00296301
     atom   32 type  1   force =     0.00482066    0.00028800   -0.00259073
     atom   33 type  1   force =     0.00464970   -0.00005418   -0.00290084
     atom   34 type  1   force =     0.00775847    0.00007571    0.02628336
     atom   35 type  1   force =     0.00764965    0.00078035    0.02648439
     atom   36 type  1   force =     0.00698836   -0.00019245    0.02569026
     atom   37 type  2   force =     0.00010785   -0.00065682    0.00021655
     atom   38 type  3   force =     0.00035724    0.00017089   -0.00032817
     atom   39 type  3   force =     0.00035617    0.00021073    0.00012516
     atom   40 type  4   force =    -0.00013718   -0.00048711    0.00027689

     Total force =     0.074588     Total SCF correction =     0.002031
 !ASE

     Writing output data file calc.save
 
     init_run     :     59.76s CPU     69.78s WALL (       1 calls)
     electrons    :  34069.86s CPU  41012.37s WALL (      20 calls)
     update_pot   :    194.68s CPU    211.27s WALL (      19 calls)
     forces       :   1801.68s CPU   1870.55s WALL (      20 calls)

     Called by init_run:
     wfcinit      :     28.79s CPU     36.86s WALL (       1 calls)
     potinit      :      4.83s CPU      5.51s WALL (       1 calls)

     Called by electrons:
     c_bands      :  19083.95s CPU  23980.74s WALL (     267 calls)
     sum_band     :   7998.40s CPU   9148.38s WALL (     267 calls)
     v_of_rho     :    680.77s CPU    851.12s WALL (     286 calls)
     newd         :   5252.88s CPU   5600.88s WALL (     286 calls)
     mix_rho      :     34.47s CPU     45.54s WALL (     267 calls)
     vdW_energy   :    375.25s CPU    458.57s WALL (     986 calls)
     vdW_ffts     :    655.25s CPU    839.76s WALL (    1972 calls)
     vdW_v        :    223.94s CPU    261.68s WALL (     986 calls)

     Called by c_bands:
     init_us_2    :    104.31s CPU    113.79s WALL (    5550 calls)
     cegterg      :  18361.92s CPU  23227.16s WALL (    2670 calls)

     Called by *egterg:
     h_psi        :  10681.68s CPU  14668.83s WALL (    9204 calls)
     s_psi        :   1288.06s CPU   1341.12s WALL (    9204 calls)
     g_psi        :     59.71s CPU     61.03s WALL (    6524 calls)
     cdiaghg      :   2428.17s CPU   2484.56s WALL (    8994 calls)

     Called by h_psi:
     add_vuspsi   :   1282.73s CPU   1335.78s WALL (    9204 calls)

     General routines
     calbec       :   1932.81s CPU   1982.93s WALL (   12074 calls)
     fft          :   1235.78s CPU   1556.49s WALL (   67874 calls)
     ffts         :      2.81s CPU      3.94s WALL (    1106 calls)
     fftw         :   6212.44s CPU  10966.26s WALL ( 4313974 calls)
     interpolate  :     22.88s CPU     34.89s WALL (    1106 calls)
     davcio       :      0.10s CPU      2.18s WALL (      10 calls)
 
     Parallel routines
     fft_scatter  :   4111.56s CPU   7062.56s WALL ( 4382954 calls)
 
     PWSCF        :    10h 8m CPU       12h 6m WALL

 
   This run was terminated on:   1:54:26  24Feb2018            

=------------------------------------------------------------------------------=
   JOB DONE.
=------------------------------------------------------------------------------=
