  python dir          : /home/vossj/suncat/lib/python2.7/site-packages/espresso
  espresso dir        : /home/vossj/suncat/esdld/espresso-dynpy-beef/bin
  pseudo dir          : /home/alatimer/bin/psp/esp_psp_w_gbrvRu/
  ase-espresso py git : ffa2778-git



     Program PWSCF v.5.1rc2 (svn rev. ) starts on  3Jul2017 at 12:18:43 

     This program is part of the open-source Quantum ESPRESSO suite
     for quantum simulation of materials; please cite
         "P. Giannozzi et al., J. Phys.:Condens. Matter 21 395502 (2009);
          URL http://www.quantum-espresso.org", 
     in publications or presentations arising from this work. More details at
     http://www.quantum-espresso.org/quote

     Parallel version (MPI), running on    16 processors
     R & G space division:  proc/nbgrp/npool/nimage =      16
     Reading input from pw.inp
     Message from routine read_cards :
     DEPRECATED: no units specified in CELL_PARAMETERS card

     Current dimensions of program PWSCF are:
     Max number of different atomic species (ntypx) = 10
     Max number of k-points (npk) =  40000
     Max angular momentum in pseudopotentials (lmaxx) =  3

     **************************************************************************
     Initializing libbeef V0.1.1 with the BEEF-vdW functional.
     Citation: Wellendorff et al., PRB 85, 235149 (2012).
     **************************************************************************


     IMPORTANT: XC functional enforced from input :
     Exchange-correlation      = BEEF-VDW ( 1  4 27 13 2)
     Any further DFT definition will be discarded
     Please, verify this is what you really want


     Subspace diagonalization in iterative solution of the eigenvalue problem:
     a serial algorithm will be used

 
     Parallelization info
     --------------------
     sticks:   dense  smooth     PW     G-vecs:    dense   smooth      PW
     Min         308     123     33                88890    22475    3142
     Max         309     124     34                88909    22507    3152
     Sum        4933    1971    535              1422359   359859   50343
 
     Generating pointlists ...
     new r_m :   0.4125 (alat units)  0.7795 (a.u.) for type    1
     new r_m :   0.4125 (alat units)  0.7795 (a.u.) for type    2
     new r_m :   0.4066 (alat units)  0.7684 (a.u.) for type    3
     new r_m :   0.4066 (alat units)  0.7684 (a.u.) for type    4


     bravais-lattice index     =            0
     lattice parameter (alat)  =       1.8897  a.u.
     unit-cell volume          =   16711.7286 (a.u.)^3
     number of atoms/cell      =           40
     number of atomic types    =            4
     number of electrons       =       377.00
     number of Kohn-Sham states=          388
     kinetic-energy cutoff     =      29.3995  Ry
     charge density cutoff     =     293.9946  Ry
     convergence threshold     =      7.3E-07
     mixing beta               =       0.1000
     number of iterations used =           10  plain     mixing
     Exchange-correlation      = BEEF-VDW ( 1  4 27 13 2)
     nstep                     =           50


     celldm(1)=   1.889726  celldm(2)=   0.000000  celldm(3)=   0.000000
     celldm(4)=   0.000000  celldm(5)=   0.000000  celldm(6)=   0.000000

     crystal axes: (cart. coord. in units of alat)
               a(1) = (   6.955292   0.000000   0.000000 )  
               a(2) = (   0.000000   8.518459   0.000000 )  
               a(3) = (   0.000000   0.000000  41.797313 )  

     reciprocal axes: (cart. coord. in units 2 pi/alat)
               b(1) = (  0.143775  0.000000  0.000000 )  
               b(2) = (  0.000000  0.117392  0.000000 )  
               b(3) = (  0.000000  0.000000  0.023925 )  


     PseudoPot. # 1 for Pt read from file:
     /home/alatimer/bin/psp/esp_psp_w_gbrvRu/Pt.UPF
     MD5 check sum: df5be8f5ed4f66d4aed38ca70ec8d507
     Pseudo is Ultrasoft + core correction, Zval = 10.0
     Generated using "atomic" code by A. Dal Corso  v.5.0.2 svn rev. 9415
     Using radial grid of 1277 points,  6 beta functions with: 
                l(1) =   0
                l(2) =   0
                l(3) =   1
                l(4) =   1
                l(5) =   2
                l(6) =   2
     Q(r) pseudized with 0 coefficients 


     PseudoPot. # 2 for  C read from file:
     /home/alatimer/bin/psp/esp_psp_w_gbrvRu/C.UPF
     MD5 check sum: ab446d787031eba755f1d5ee46644bb0
     Pseudo is Ultrasoft + core correction, Zval =  4.0
     Generated using "atomic" code by A. Dal Corso  v.5.0.2 svn rev. 9415
     Using radial grid of 1073 points,  4 beta functions with: 
                l(1) =   0
                l(2) =   0
                l(3) =   1
                l(4) =   1
     Q(r) pseudized with 0 coefficients 


     PseudoPot. # 3 for  O read from file:
     /home/alatimer/bin/psp/esp_psp_w_gbrvRu/O.UPF
     MD5 check sum: e057bbcf3229fb5d8c36c0c92f9568b4
     Pseudo is Ultrasoft + core correction, Zval =  6.0
     Generated using "atomic" code by A. Dal Corso  v.5.0.2 svn rev. 9415
     Using radial grid of 1095 points,  4 beta functions with: 
                l(1) =   0
                l(2) =   0
                l(3) =   1
                l(4) =   1
     Q(r) pseudized with 0 coefficients 


     PseudoPot. # 4 for  H read from file:
     /home/alatimer/bin/psp/esp_psp_w_gbrvRu/H.UPF
     MD5 check sum: bd57da0722753ddfd9833a65b40bb853
     Pseudo is Ultrasoft, Zval =  1.0
     Generated using "atomic" code by A. Dal Corso  v.5.0.2 svn rev. 9415
     Using radial grid of  929 points,  2 beta functions with: 
                l(1) =   0
                l(2) =   0
     Q(r) pseudized with 0 coefficients 


     vdW kernel table read from file vdW_kernel_table
     MD5 check sum: 095c7af220d748ca6e76c0b4c6cfb241

     atomic species   valence    mass     pseudopotential
        Pt1           10.00   195.08000     Pt( 1.00)
        C1             4.00    12.01100      C( 1.00)
        O1             6.00    15.99940      O( 1.00)
        H1             1.00     1.00794      H( 1.00)

     Starting magnetic structure 
     atomic species   magnetization
        Pt1          0.200
        C1           0.500
        O1           0.333
        H1           0.000

     No symmetry found



   Cartesian axes

     site n.     atom                  positions (alat units)
         1           Pt1 tau(   1) = (   6.8827451   0.0336129  25.3501664  )
         2           Pt1 tau(   2) = (   6.8600752   2.8812541  25.2302078  )
         3           Pt1 tau(   3) = (   6.8614995   5.6943772  25.2419548  )
         4           Pt1 tau(   4) = (   4.5764396   7.1213049  24.5878984  )
         5           Pt1 tau(   5) = (   4.5765111   1.4416367  24.5901176  )
         6           Pt1 tau(   6) = (   4.5754485   4.2836649  24.5859107  )
         7           Pt1 tau(   7) = (   2.3269043   0.0219781  23.8935736  )
         8           Pt1 tau(   8) = (   2.3327488   2.8618115  23.8840341  )
         9           Pt1 tau(   9) = (   2.3299069   5.7006902  23.8870432  )
        10           Pt1 tau(  10) = (   0.0467533   7.1442517  22.9154455  )
        11           Pt1 tau(  11) = (   0.0487668   1.4277284  22.9055469  )
        12           Pt1 tau(  12) = (   0.0537665   4.2867793  22.8825473  )
        13           Pt1 tau(  13) = (   4.6378427   0.0224915  22.1202380  )
        14           Pt1 tau(  14) = (   4.6434793   2.8597907  22.1196773  )
        15           Pt1 tau(  15) = (   4.6431129   5.7055171  22.1188684  )
        16           Pt1 tau(  16) = (   2.3456427   7.1202780  21.3102153  )
        17           Pt1 tau(  17) = (   2.3485785   1.4415942  21.3076587  )
        18           Pt1 tau(  18) = (   2.3558303   4.2814460  21.3044960  )
        19           Pt1 tau(  19) = (   0.0270981   0.0241464  20.4874990  )
        20           Pt1 tau(  20) = (   0.0270981   2.8636326  20.4874990  )
        21           Pt1 tau(  21) = (   0.0270981   5.7031188  20.4874990  )
        22           Pt1 tau(  22) = (   4.6639596   7.1228619  19.6678099  )
        23           Pt1 tau(  23) = (   4.6639596   1.4438895  19.6678099  )
        24           Pt1 tau(  24) = (   4.6639596   4.2833757  19.6678099  )
        25           Pt1 tau(  25) = (   2.3455289   0.0241464  18.8481208  )
        26           Pt1 tau(  26) = (   2.3455289   2.8636326  18.8481208  )
        27           Pt1 tau(  27) = (   2.3455289   5.7031188  18.8481208  )
        28           Pt1 tau(  28) = (   0.0270981   7.1228619  18.0284318  )
        29           Pt1 tau(  29) = (   0.0270981   1.4438895  18.0284318  )
        30           Pt1 tau(  30) = (   0.0270981   4.2833757  18.0284318  )
        31           Pt1 tau(  31) = (   4.6639596   0.0241464  17.2087427  )
        32           Pt1 tau(  32) = (   4.6639596   2.8636326  17.2087427  )
        33           Pt1 tau(  33) = (   4.6639596   5.7031188  17.2087427  )
        34           Pt1 tau(  34) = (   2.3455289   7.1228619  16.3890537  )
        35           Pt1 tau(  35) = (   2.3455289   1.4438895  16.3890537  )
        36           Pt1 tau(  36) = (   2.3455289   4.2833757  16.3890537  )
        37           C1  tau(  37) = (   6.9269019   0.0226430  27.3522521  )
        38           O1  tau(  38) = (   0.0468960   7.5224164  28.0118200  )
        39           O1  tau(  39) = (   6.9042204   1.2588980  27.9170435  )
        40           H1  tau(  40) = (   0.0073014   1.1324462  28.8928569  )

     number of k points=    10  Fermi-Dirac smearing, width (Ry)=  0.0073
                       cart. coord. in units 2pi/alat
        k(    1) = (   0.0000000   0.0000000   0.0000000), wk =   0.1111111
        k(    2) = (   0.0000000   0.0391307   0.0000000), wk =   0.2222222
        k(    3) = (   0.0479251   0.0000000   0.0000000), wk =   0.2222222
        k(    4) = (   0.0479251   0.0391307   0.0000000), wk =   0.2222222
        k(    5) = (  -0.0479251   0.0391307   0.0000000), wk =   0.2222222
        k(    6) = (   0.0000000   0.0000000   0.0000000), wk =   0.1111111
        k(    7) = (   0.0000000   0.0391307   0.0000000), wk =   0.2222222
        k(    8) = (   0.0479251   0.0000000   0.0000000), wk =   0.2222222
        k(    9) = (   0.0479251   0.0391307   0.0000000), wk =   0.2222222
        k(   10) = (  -0.0479251   0.0391307   0.0000000), wk =   0.2222222

     Dense  grid:  1422359 G-vectors     FFT dimensions: (  72,  90, 432)

     Smooth grid:   359859 G-vectors     FFT dimensions: (  45,  60, 288)

     Largest allocated arrays     est. size (Mb)     dimensions
        Kohn-Sham Wavefunctions        17.20 Mb     (    2906,  388)
        NL pseudopotentials            29.89 Mb     (    2906,  674)
        Each V/rho on FFT grid          5.34 Mb     (  174960,   2)
        Each G-vector array             0.68 Mb     (   88894)
        G-vector shells                 0.30 Mb     (   39049)
     Largest temporary arrays     est. size (Mb)     dimensions
        Auxiliary wavefunctions        68.82 Mb     (    2906, 1552)
        Each subspace H/S matrix       36.75 Mb     (    1552, 1552)
        Each <psi_i|beta_j> matrix      3.99 Mb     (     674,  388)
        Arrays for rho mixing          26.70 Mb     (  174960,   10)

     Check: negative/imaginary core charge=   -0.000005    0.000000

     Initial potential from superposition of free atoms
     Check: negative starting charge=(component1):   -0.007425
     Check: negative starting charge=(component2):   -0.004923

     starting charge  376.99384, renormalised to  377.00000

     negative rho (up, down):  7.425E-03 4.923E-03


     ************************************************************************
     *
     * You are using vdW-DF for exchange-correlation in this calculation.
     * Please cite the following three references that made this development
     * possible:
     *
     *   M. Dion, H. Rydberg, E. Schroder, D. C. Langreth, and
     *   B. I. Lundqvist, Phys. Rev. Lett. 92, 246401 (2004).
     *
     *   T. Thonhauser, V. R. Cooper, S. Li, A. Puzder, P. Hyldgaard, and
     *   D. C. Langreth, Phys. Rev. B 76, 125112 (2007).
     *
     *   G. Roman-Perez and J. M. Soler, Phys. Rev. Lett. 103, 096102 (2009).
     *
     *
     * If you are using vdW-DF2, please also cite:
     *
     *   K. Lee, E. D. Murray, L. Kong, B. I. Lundqvist, and
     *   D. C. Langreth, Phys. Rev. B 82, 081101(R) (2010).
     *
     *
     * If you are calculating the stress with vdW-DF, please also cite:
     *
     *   R. Sabatini, E. Kucukbenli, B. Kolb, T. Thonhauser, and
     *   S. de Gironcoli, J. Phys.: Condens. Matter 24, 424209 (2012).
     *
     ************************************************************************

     Carrying out vdW-DF run using the following parameters:

     Nqs =      20    Nr_points =    1024   r_max =   100.000
     q_mesh =
               0.00001000     0.04494208     0.09755937     0.15916263
               0.23128650     0.31572767     0.41458969     0.53033537
               0.66584808     0.82450364     1.01025438     1.22772762
               1.48234092     1.78043706     2.12944203     2.53805004
               3.01644009     3.57652955     4.23227104     5.00000000

     Gradients computed in reciprocal space

     ************************************************************************


     Starting wfc are  337 randomized atomic wfcs +   51 random wfc

     total cpu time spent up to now is       40.4 secs

     Self-consistent Calculation

     iteration #  1     ecut=    29.40 Ry     beta=0.10
     Davidson diagonalization with overlap
     ethr =  1.00E-02,  avg # of iterations = 10.1

     Threshold (ethr) on eigenvalues was too large:
     Diagonalizing with lowered threshold

     Davidson diagonalization with overlap
     ethr =  8.99E-04,  avg # of iterations =  1.0

     negative rho (up, down):  7.350E-03 4.974E-03
 
     Magnetic moment per site:
     atom:    1    charge:    0.7121    magn:    0.1326    constr:    0.0000
     atom:    2    charge:    0.7134    magn:    0.1344    constr:    0.0000
     atom:    3    charge:    0.7104    magn:    0.1338    constr:    0.0000
     atom:    4    charge:    0.7126    magn:    0.1348    constr:    0.0000
     atom:    5    charge:    0.7125    magn:    0.1347    constr:    0.0000
     atom:    6    charge:    0.7129    magn:    0.1348    constr:    0.0000
     atom:    7    charge:    0.7101    magn:    0.1339    constr:    0.0000
     atom:    8    charge:    0.7118    magn:    0.1345    constr:    0.0000
     atom:    9    charge:    0.7110    magn:    0.1344    constr:    0.0000
     atom:   10    charge:    0.7122    magn:    0.1355    constr:    0.0000
     atom:   11    charge:    0.7116    magn:    0.1354    constr:    0.0000
     atom:   12    charge:    0.7108    magn:    0.1359    constr:    0.0000
     atom:   13    charge:    0.7114    magn:    0.1360    constr:    0.0000
     atom:   14    charge:    0.7114    magn:    0.1361    constr:    0.0000
     atom:   15    charge:    0.7121    magn:    0.1362    constr:    0.0000
     atom:   16    charge:    0.7116    magn:    0.1364    constr:    0.0000
     atom:   17    charge:    0.7116    magn:    0.1364    constr:    0.0000
     atom:   18    charge:    0.7116    magn:    0.1364    constr:    0.0000
     atom:   19    charge:    0.7120    magn:    0.1363    constr:    0.0000
     atom:   20    charge:    0.7120    magn:    0.1363    constr:    0.0000
     atom:   21    charge:    0.7120    magn:    0.1362    constr:    0.0000
     atom:   22    charge:    0.7119    magn:    0.1363    constr:    0.0000
     atom:   23    charge:    0.7119    magn:    0.1362    constr:    0.0000
     atom:   24    charge:    0.7119    magn:    0.1362    constr:    0.0000
     atom:   25    charge:    0.7123    magn:    0.1364    constr:    0.0000
     atom:   26    charge:    0.7123    magn:    0.1364    constr:    0.0000
     atom:   27    charge:    0.7123    magn:    0.1364    constr:    0.0000
     atom:   28    charge:    0.7121    magn:    0.1348    constr:    0.0000
     atom:   29    charge:    0.7121    magn:    0.1348    constr:    0.0000
     atom:   30    charge:    0.7120    magn:    0.1351    constr:    0.0000
     atom:   31    charge:    0.7125    magn:    0.1348    constr:    0.0000
     atom:   32    charge:    0.7125    magn:    0.1348    constr:    0.0000
     atom:   33    charge:    0.7125    magn:    0.1348    constr:    0.0000
     atom:   34    charge:    0.7126    magn:    0.1338    constr:    0.0000
     atom:   35    charge:    0.7126    magn:    0.1338    constr:    0.0000
     atom:   36    charge:    0.7126    magn:    0.1338    constr:    0.0000
     atom:   37    charge:    0.6224    magn:    0.2719    constr:    0.0000
     atom:   38    charge:    1.9903    magn:    0.6039    constr:    0.0000
     atom:   39    charge:    1.9868    magn:    0.5960    constr:    0.0000
     atom:   40    charge:    0.3419    magn:    0.0344    constr:    0.0000

     total cpu time spent up to now is      401.5 secs

     total energy              =   -2734.62242070 Ry
     Harris-Foulkes estimate   =   -2734.86991905 Ry
     estimated scf accuracy    <       3.37688469 Ry

     total magnetization       =    26.76 Bohr mag/cell
     absolute magnetization    =    27.15 Bohr mag/cell

     iteration #  2     ecut=    29.40 Ry     beta=0.10
     Davidson diagonalization with overlap
     ethr =  8.96E-04,  avg # of iterations =  2.4

     negative rho (up, down):  8.338E-03 7.041E-03
 
     Magnetic moment per site:
     atom:    1    charge:    0.7108    magn:    0.1303    constr:    0.0000
     atom:    2    charge:    0.7111    magn:    0.1336    constr:    0.0000
     atom:    3    charge:    0.7081    magn:    0.1331    constr:    0.0000
     atom:    4    charge:    0.7112    magn:    0.1335    constr:    0.0000
     atom:    5    charge:    0.7111    magn:    0.1334    constr:    0.0000
     atom:    6    charge:    0.7114    magn:    0.1335    constr:    0.0000
     atom:    7    charge:    0.7095    magn:    0.1320    constr:    0.0000
     atom:    8    charge:    0.7111    magn:    0.1327    constr:    0.0000
     atom:    9    charge:    0.7103    magn:    0.1326    constr:    0.0000
     atom:   10    charge:    0.7123    magn:    0.1333    constr:    0.0000
     atom:   11    charge:    0.7117    magn:    0.1333    constr:    0.0000
     atom:   12    charge:    0.7108    magn:    0.1339    constr:    0.0000
     atom:   13    charge:    0.7119    magn:    0.1339    constr:    0.0000
     atom:   14    charge:    0.7118    magn:    0.1339    constr:    0.0000
     atom:   15    charge:    0.7125    magn:    0.1340    constr:    0.0000
     atom:   16    charge:    0.7123    magn:    0.1340    constr:    0.0000
     atom:   17    charge:    0.7124    magn:    0.1340    constr:    0.0000
     atom:   18    charge:    0.7124    magn:    0.1341    constr:    0.0000
     atom:   19    charge:    0.7129    magn:    0.1338    constr:    0.0000
     atom:   20    charge:    0.7129    magn:    0.1338    constr:    0.0000
     atom:   21    charge:    0.7130    magn:    0.1337    constr:    0.0000
     atom:   22    charge:    0.7127    magn:    0.1339    constr:    0.0000
     atom:   23    charge:    0.7127    magn:    0.1339    constr:    0.0000
     atom:   24    charge:    0.7126    magn:    0.1338    constr:    0.0000
     atom:   25    charge:    0.7128    magn:    0.1342    constr:    0.0000
     atom:   26    charge:    0.7128    magn:    0.1341    constr:    0.0000
     atom:   27    charge:    0.7128    magn:    0.1341    constr:    0.0000
     atom:   28    charge:    0.7123    magn:    0.1326    constr:    0.0000
     atom:   29    charge:    0.7123    magn:    0.1326    constr:    0.0000
     atom:   30    charge:    0.7122    magn:    0.1330    constr:    0.0000
     atom:   31    charge:    0.7123    magn:    0.1329    constr:    0.0000
     atom:   32    charge:    0.7123    magn:    0.1329    constr:    0.0000
     atom:   33    charge:    0.7123    magn:    0.1329    constr:    0.0000
     atom:   34    charge:    0.7119    magn:    0.1323    constr:    0.0000
     atom:   35    charge:    0.7119    magn:    0.1323    constr:    0.0000
     atom:   36    charge:    0.7119    magn:    0.1323    constr:    0.0000
     atom:   37    charge:    0.6227    magn:    0.2654    constr:    0.0000
     atom:   38    charge:    1.9944    magn:    0.5898    constr:    0.0000
     atom:   39    charge:    1.9906    magn:    0.5820    constr:    0.0000
     atom:   40    charge:    0.3430    magn:    0.0329    constr:    0.0000

     total cpu time spent up to now is      500.7 secs

     total energy              =   -2734.53628092 Ry
     Harris-Foulkes estimate   =   -2734.96148898 Ry
     estimated scf accuracy    <       9.56289657 Ry

     total magnetization       =    24.75 Bohr mag/cell
     absolute magnetization    =    25.11 Bohr mag/cell

     iteration #  3     ecut=    29.40 Ry     beta=0.10
     Davidson diagonalization with overlap
     ethr =  8.96E-04,  avg # of iterations =  1.0

     negative rho (up, down):  1.059E-02 1.094E-02
 
     Magnetic moment per site:
     atom:    1    charge:    0.7107    magn:    0.1281    constr:    0.0000
     atom:    2    charge:    0.7111    magn:    0.1321    constr:    0.0000
     atom:    3    charge:    0.7080    magn:    0.1316    constr:    0.0000
     atom:    4    charge:    0.7113    magn:    0.1318    constr:    0.0000
     atom:    5    charge:    0.7112    magn:    0.1318    constr:    0.0000
     atom:    6    charge:    0.7115    magn:    0.1318    constr:    0.0000
     atom:    7    charge:    0.7096    magn:    0.1301    constr:    0.0000
     atom:    8    charge:    0.7113    magn:    0.1310    constr:    0.0000
     atom:    9    charge:    0.7104    magn:    0.1308    constr:    0.0000
     atom:   10    charge:    0.7126    magn:    0.1315    constr:    0.0000
     atom:   11    charge:    0.7120    magn:    0.1315    constr:    0.0000
     atom:   12    charge:    0.7111    magn:    0.1321    constr:    0.0000
     atom:   13    charge:    0.7123    magn:    0.1321    constr:    0.0000
     atom:   14    charge:    0.7122    magn:    0.1321    constr:    0.0000
     atom:   15    charge:    0.7129    magn:    0.1322    constr:    0.0000
     atom:   16    charge:    0.7127    magn:    0.1322    constr:    0.0000
     atom:   17    charge:    0.7128    magn:    0.1322    constr:    0.0000
     atom:   18    charge:    0.7127    magn:    0.1324    constr:    0.0000
     atom:   19    charge:    0.7131    magn:    0.1322    constr:    0.0000
     atom:   20    charge:    0.7131    magn:    0.1322    constr:    0.0000
     atom:   21    charge:    0.7131    magn:    0.1321    constr:    0.0000
     atom:   22    charge:    0.7126    magn:    0.1324    constr:    0.0000
     atom:   23    charge:    0.7126    magn:    0.1324    constr:    0.0000
     atom:   24    charge:    0.7126    magn:    0.1323    constr:    0.0000
     atom:   25    charge:    0.7125    magn:    0.1329    constr:    0.0000
     atom:   26    charge:    0.7125    magn:    0.1328    constr:    0.0000
     atom:   27    charge:    0.7125    magn:    0.1328    constr:    0.0000
     atom:   28    charge:    0.7118    magn:    0.1312    constr:    0.0000
     atom:   29    charge:    0.7118    magn:    0.1313    constr:    0.0000
     atom:   30    charge:    0.7117    magn:    0.1316    constr:    0.0000
     atom:   31    charge:    0.7115    magn:    0.1318    constr:    0.0000
     atom:   32    charge:    0.7115    magn:    0.1318    constr:    0.0000
     atom:   33    charge:    0.7115    magn:    0.1318    constr:    0.0000
     atom:   34    charge:    0.7109    magn:    0.1314    constr:    0.0000
     atom:   35    charge:    0.7109    magn:    0.1314    constr:    0.0000
     atom:   36    charge:    0.7109    magn:    0.1314    constr:    0.0000
     atom:   37    charge:    0.6231    magn:    0.2603    constr:    0.0000
     atom:   38    charge:    1.9978    magn:    0.5785    constr:    0.0000
     atom:   39    charge:    1.9936    magn:    0.5708    constr:    0.0000
     atom:   40    charge:    0.3439    magn:    0.0317    constr:    0.0000

     total cpu time spent up to now is      591.1 secs

     total energy              =   -2734.62146702 Ry
     Harris-Foulkes estimate   =   -2734.94940153 Ry
     estimated scf accuracy    <      15.85176335 Ry

     total magnetization       =    25.32 Bohr mag/cell
     absolute magnetization    =    25.72 Bohr mag/cell

     iteration #  4     ecut=    29.40 Ry     beta=0.10
     Davidson diagonalization with overlap
     ethr =  8.96E-04,  avg # of iterations =  1.0

     negative rho (up, down):  7.381E-03 5.594E-03
 
     Magnetic moment per site:
     atom:    1    charge:    0.7096    magn:    0.1029    constr:    0.0000
     atom:    2    charge:    0.7113    magn:    0.1143    constr:    0.0000
     atom:    3    charge:    0.7080    magn:    0.1141    constr:    0.0000
     atom:    4    charge:    0.7104    magn:    0.1142    constr:    0.0000
     atom:    5    charge:    0.7104    magn:    0.1141    constr:    0.0000
     atom:    6    charge:    0.7109    magn:    0.1139    constr:    0.0000
     atom:    7    charge:    0.7082    magn:    0.1113    constr:    0.0000
     atom:    8    charge:    0.7099    magn:    0.1128    constr:    0.0000
     atom:    9    charge:    0.7089    magn:    0.1127    constr:    0.0000
     atom:   10    charge:    0.7117    magn:    0.1127    constr:    0.0000
     atom:   11    charge:    0.7110    magn:    0.1131    constr:    0.0000
     atom:   12    charge:    0.7098    magn:    0.1146    constr:    0.0000
     atom:   13    charge:    0.7105    magn:    0.1153    constr:    0.0000
     atom:   14    charge:    0.7104    magn:    0.1151    constr:    0.0000
     atom:   15    charge:    0.7111    magn:    0.1152    constr:    0.0000
     atom:   16    charge:    0.7107    magn:    0.1155    constr:    0.0000
     atom:   17    charge:    0.7108    magn:    0.1155    constr:    0.0000
     atom:   18    charge:    0.7109    magn:    0.1158    constr:    0.0000
     atom:   19    charge:    0.7112    magn:    0.1151    constr:    0.0000
     atom:   20    charge:    0.7114    magn:    0.1151    constr:    0.0000
     atom:   21    charge:    0.7115    magn:    0.1148    constr:    0.0000
     atom:   22    charge:    0.7109    magn:    0.1154    constr:    0.0000
     atom:   23    charge:    0.7109    magn:    0.1154    constr:    0.0000
     atom:   24    charge:    0.7109    magn:    0.1151    constr:    0.0000
     atom:   25    charge:    0.7110    magn:    0.1160    constr:    0.0000
     atom:   26    charge:    0.7110    magn:    0.1157    constr:    0.0000
     atom:   27    charge:    0.7110    magn:    0.1157    constr:    0.0000
     atom:   28    charge:    0.7104    magn:    0.1129    constr:    0.0000
     atom:   29    charge:    0.7104    magn:    0.1129    constr:    0.0000
     atom:   30    charge:    0.7104    magn:    0.1139    constr:    0.0000
     atom:   31    charge:    0.7107    magn:    0.1141    constr:    0.0000
     atom:   32    charge:    0.7108    magn:    0.1140    constr:    0.0000
     atom:   33    charge:    0.7108    magn:    0.1140    constr:    0.0000
     atom:   34    charge:    0.7115    magn:    0.1135    constr:    0.0000
     atom:   35    charge:    0.7115    magn:    0.1135    constr:    0.0000
     atom:   36    charge:    0.7115    magn:    0.1133    constr:    0.0000
     atom:   37    charge:    0.6281    magn:    0.2010    constr:    0.0000
     atom:   38    charge:    2.0336    magn:    0.4474    constr:    0.0000
     atom:   39    charge:    2.0262    magn:    0.4412    constr:    0.0000
     atom:   40    charge:    0.3544    magn:    0.0181    constr:    0.0000

     total cpu time spent up to now is      681.6 secs

     total energy              =   -2734.93436762 Ry
     Harris-Foulkes estimate   =   -2734.84628520 Ry
     estimated scf accuracy    <       2.39218689 Ry

     total magnetization       =    24.95 Bohr mag/cell
     absolute magnetization    =    25.33 Bohr mag/cell

     iteration #  5     ecut=    29.40 Ry     beta=0.10
     Davidson diagonalization with overlap
     ethr =  6.35E-04,  avg # of iterations =  1.7

     negative rho (up, down):  9.640E-03 9.710E-03
 
     Magnetic moment per site:
     atom:    1    charge:    0.7123    magn:    0.0859    constr:    0.0000
     atom:    2    charge:    0.7131    magn:    0.1017    constr:    0.0000
     atom:    3    charge:    0.7101    magn:    0.1015    constr:    0.0000
     atom:    4    charge:    0.7121    magn:    0.1015    constr:    0.0000
     atom:    5    charge:    0.7120    magn:    0.1014    constr:    0.0000
     atom:    6    charge:    0.7122    magn:    0.1015    constr:    0.0000
     atom:    7    charge:    0.7096    magn:    0.0981    constr:    0.0000
     atom:    8    charge:    0.7109    magn:    0.1001    constr:    0.0000
     atom:    9    charge:    0.7101    magn:    0.1001    constr:    0.0000
     atom:   10    charge:    0.7121    magn:    0.1000    constr:    0.0000
     atom:   11    charge:    0.7110    magn:    0.1011    constr:    0.0000
     atom:   12    charge:    0.7097    magn:    0.1029    constr:    0.0000
     atom:   13    charge:    0.7110    magn:    0.1037    constr:    0.0000
     atom:   14    charge:    0.7107    magn:    0.1036    constr:    0.0000
     atom:   15    charge:    0.7114    magn:    0.1037    constr:    0.0000
     atom:   16    charge:    0.7113    magn:    0.1038    constr:    0.0000
     atom:   17    charge:    0.7114    magn:    0.1039    constr:    0.0000
     atom:   18    charge:    0.7112    magn:    0.1045    constr:    0.0000
     atom:   19    charge:    0.7116    magn:    0.1034    constr:    0.0000
     atom:   20    charge:    0.7116    magn:    0.1037    constr:    0.0000
     atom:   21    charge:    0.7117    magn:    0.1034    constr:    0.0000
     atom:   22    charge:    0.7113    magn:    0.1039    constr:    0.0000
     atom:   23    charge:    0.7113    magn:    0.1039    constr:    0.0000
     atom:   24    charge:    0.7112    magn:    0.1036    constr:    0.0000
     atom:   25    charge:    0.7114    magn:    0.1046    constr:    0.0000
     atom:   26    charge:    0.7112    magn:    0.1044    constr:    0.0000
     atom:   27    charge:    0.7112    magn:    0.1043    constr:    0.0000
     atom:   28    charge:    0.7111    magn:    0.1005    constr:    0.0000
     atom:   29    charge:    0.7110    magn:    0.1006    constr:    0.0000
     atom:   30    charge:    0.7109    magn:    0.1020    constr:    0.0000
     atom:   31    charge:    0.7117    magn:    0.1020    constr:    0.0000
     atom:   32    charge:    0.7116    magn:    0.1019    constr:    0.0000
     atom:   33    charge:    0.7116    magn:    0.1019    constr:    0.0000
     atom:   34    charge:    0.7127    magn:    0.1013    constr:    0.0000
     atom:   35    charge:    0.7127    magn:    0.1013    constr:    0.0000
     atom:   36    charge:    0.7127    magn:    0.1011    constr:    0.0000
     atom:   37    charge:    0.6314    magn:    0.1614    constr:    0.0000
     atom:   38    charge:    2.0242    magn:    0.3669    constr:    0.0000
     atom:   39    charge:    2.0293    magn:    0.3563    constr:    0.0000
     atom:   40    charge:    0.3633    magn:    0.0101    constr:    0.0000

     total cpu time spent up to now is      776.2 secs

     total energy              =   -2735.16523179 Ry
     Harris-Foulkes estimate   =   -2735.02306078 Ry
     estimated scf accuracy    <       0.42691912 Ry

     total magnetization       =    22.73 Bohr mag/cell
     absolute magnetization    =    23.13 Bohr mag/cell

     iteration #  6     ecut=    29.40 Ry     beta=0.10
     Davidson diagonalization with overlap
     ethr =  1.13E-04,  avg # of iterations =  3.7

     negative rho (up, down):  1.434E-02 1.665E-02
 
     Magnetic moment per site:
     atom:    1    charge:    0.7156    magn:    0.0674    constr:    0.0000
     atom:    2    charge:    0.7159    magn:    0.0876    constr:    0.0000
     atom:    3    charge:    0.7131    magn:    0.0874    constr:    0.0000
     atom:    4    charge:    0.7137    magn:    0.0881    constr:    0.0000
     atom:    5    charge:    0.7136    magn:    0.0879    constr:    0.0000
     atom:    6    charge:    0.7140    magn:    0.0879    constr:    0.0000
     atom:    7    charge:    0.7105    magn:    0.0841    constr:    0.0000
     atom:    8    charge:    0.7122    magn:    0.0865    constr:    0.0000
     atom:    9    charge:    0.7113    magn:    0.0866    constr:    0.0000
     atom:   10    charge:    0.7133    magn:    0.0863    constr:    0.0000
     atom:   11    charge:    0.7125    magn:    0.0879    constr:    0.0000
     atom:   12    charge:    0.7113    magn:    0.0900    constr:    0.0000
     atom:   13    charge:    0.7119    magn:    0.0914    constr:    0.0000
     atom:   14    charge:    0.7121    magn:    0.0910    constr:    0.0000
     atom:   15    charge:    0.7127    magn:    0.0910    constr:    0.0000
     atom:   16    charge:    0.7124    magn:    0.0914    constr:    0.0000
     atom:   17    charge:    0.7127    magn:    0.0914    constr:    0.0000
     atom:   18    charge:    0.7128    magn:    0.0921    constr:    0.0000
     atom:   19    charge:    0.7129    magn:    0.0907    constr:    0.0000
     atom:   20    charge:    0.7134    magn:    0.0911    constr:    0.0000
     atom:   21    charge:    0.7134    magn:    0.0907    constr:    0.0000
     atom:   22    charge:    0.7128    magn:    0.0914    constr:    0.0000
     atom:   23    charge:    0.7128    magn:    0.0914    constr:    0.0000
     atom:   24    charge:    0.7130    magn:    0.0908    constr:    0.0000
     atom:   25    charge:    0.7128    magn:    0.0922    constr:    0.0000
     atom:   26    charge:    0.7130    magn:    0.0917    constr:    0.0000
     atom:   27    charge:    0.7129    magn:    0.0916    constr:    0.0000
     atom:   28    charge:    0.7123    magn:    0.0871    constr:    0.0000
     atom:   29    charge:    0.7123    magn:    0.0872    constr:    0.0000
     atom:   30    charge:    0.7124    magn:    0.0889    constr:    0.0000
     atom:   31    charge:    0.7128    magn:    0.0890    constr:    0.0000
     atom:   32    charge:    0.7130    magn:    0.0889    constr:    0.0000
     atom:   33    charge:    0.7130    magn:    0.0889    constr:    0.0000
     atom:   34    charge:    0.7140    magn:    0.0882    constr:    0.0000
     atom:   35    charge:    0.7141    magn:    0.0882    constr:    0.0000
     atom:   36    charge:    0.7142    magn:    0.0878    constr:    0.0000
     atom:   37    charge:    0.6354    magn:    0.1189    constr:    0.0000
     atom:   38    charge:    2.0165    magn:    0.2782    constr:    0.0000
     atom:   39    charge:    2.0282    magn:    0.2647    constr:    0.0000
     atom:   40    charge:    0.3735    magn:    0.0019    constr:    0.0000

     total cpu time spent up to now is      885.7 secs

     total energy              =   -2735.32635004 Ry
     Harris-Foulkes estimate   =   -2735.18686782 Ry
     estimated scf accuracy    <       0.22439216 Ry

     total magnetization       =    21.29 Bohr mag/cell
     absolute magnetization    =    21.78 Bohr mag/cell

     iteration #  7     ecut=    29.40 Ry     beta=0.10
     Davidson diagonalization with overlap
     ethr =  5.95E-05,  avg # of iterations =  5.4

     negative rho (up, down):  1.616E-02 1.916E-02
 
     Magnetic moment per site:
     atom:    1    charge:    0.7177    magn:    0.0567    constr:    0.0000
     atom:    2    charge:    0.7171    magn:    0.0795    constr:    0.0000
     atom:    3    charge:    0.7144    magn:    0.0793    constr:    0.0000
     atom:    4    charge:    0.7152    magn:    0.0800    constr:    0.0000
     atom:    5    charge:    0.7150    magn:    0.0798    constr:    0.0000
     atom:    6    charge:    0.7151    magn:    0.0800    constr:    0.0000
     atom:    7    charge:    0.7119    magn:    0.0756    constr:    0.0000
     atom:    8    charge:    0.7133    magn:    0.0784    constr:    0.0000
     atom:    9    charge:    0.7125    magn:    0.0784    constr:    0.0000
     atom:   10    charge:    0.7148    magn:    0.0782    constr:    0.0000
     atom:   11    charge:    0.7141    magn:    0.0800    constr:    0.0000
     atom:   12    charge:    0.7126    magn:    0.0825    constr:    0.0000
     atom:   13    charge:    0.7138    magn:    0.0838    constr:    0.0000
     atom:   14    charge:    0.7135    magn:    0.0835    constr:    0.0000
     atom:   15    charge:    0.7142    magn:    0.0835    constr:    0.0000
     atom:   16    charge:    0.7141    magn:    0.0839    constr:    0.0000
     atom:   17    charge:    0.7142    magn:    0.0839    constr:    0.0000
     atom:   18    charge:    0.7141    magn:    0.0848    constr:    0.0000
     atom:   19    charge:    0.7146    magn:    0.0831    constr:    0.0000
     atom:   20    charge:    0.7147    magn:    0.0839    constr:    0.0000
     atom:   21    charge:    0.7148    magn:    0.0833    constr:    0.0000
     atom:   22    charge:    0.7144    magn:    0.0840    constr:    0.0000
     atom:   23    charge:    0.7143    magn:    0.0840    constr:    0.0000
     atom:   24    charge:    0.7142    magn:    0.0835    constr:    0.0000
     atom:   25    charge:    0.7146    magn:    0.0847    constr:    0.0000
     atom:   26    charge:    0.7144    magn:    0.0844    constr:    0.0000
     atom:   27    charge:    0.7144    magn:    0.0842    constr:    0.0000
     atom:   28    charge:    0.7136    magn:    0.0791    constr:    0.0000
     atom:   29    charge:    0.7136    magn:    0.0793    constr:    0.0000
     atom:   30    charge:    0.7134    magn:    0.0813    constr:    0.0000
     atom:   31    charge:    0.7143    magn:    0.0812    constr:    0.0000
     atom:   32    charge:    0.7142    magn:    0.0813    constr:    0.0000
     atom:   33    charge:    0.7142    magn:    0.0813    constr:    0.0000
     atom:   34    charge:    0.7154    magn:    0.0802    constr:    0.0000
     atom:   35    charge:    0.7153    magn:    0.0803    constr:    0.0000
     atom:   36    charge:    0.7153    magn:    0.0801    constr:    0.0000
     atom:   37    charge:    0.6379    magn:    0.0946    constr:    0.0000
     atom:   38    charge:    2.0110    magn:    0.2266    constr:    0.0000
     atom:   39    charge:    2.0230    magn:    0.2122    constr:    0.0000
     atom:   40    charge:    0.3801    magn:   -0.0023    constr:    0.0000

     total cpu time spent up to now is     1009.2 secs

     total energy              =   -2735.40647599 Ry
     Harris-Foulkes estimate   =   -2735.34018446 Ry
     estimated scf accuracy    <       0.12380714 Ry

     total magnetization       =    19.51 Bohr mag/cell
     absolute magnetization    =    20.18 Bohr mag/cell

     iteration #  8     ecut=    29.40 Ry     beta=0.10
     Davidson diagonalization with overlap
     ethr =  3.28E-05,  avg # of iterations =  4.2

     negative rho (up, down):  1.871E-02 2.260E-02
 
     Magnetic moment per site:
     atom:    1    charge:    0.7202    magn:    0.0445    constr:    0.0000
     atom:    2    charge:    0.7189    magn:    0.0696    constr:    0.0000
     atom:    3    charge:    0.7161    magn:    0.0695    constr:    0.0000
     atom:    4    charge:    0.7173    magn:    0.0704    constr:    0.0000
     atom:    5    charge:    0.7171    magn:    0.0701    constr:    0.0000
     atom:    6    charge:    0.7173    magn:    0.0703    constr:    0.0000
     atom:    7    charge:    0.7141    magn:    0.0655    constr:    0.0000
     atom:    8    charge:    0.7158    magn:    0.0684    constr:    0.0000
     atom:    9    charge:    0.7149    magn:    0.0685    constr:    0.0000
     atom:   10    charge:    0.7174    magn:    0.0686    constr:    0.0000
     atom:   11    charge:    0.7169    magn:    0.0706    constr:    0.0000
     atom:   12    charge:    0.7156    magn:    0.0734    constr:    0.0000
     atom:   13    charge:    0.7164    magn:    0.0749    constr:    0.0000
     atom:   14    charge:    0.7165    magn:    0.0745    constr:    0.0000
     atom:   15    charge:    0.7172    magn:    0.0745    constr:    0.0000
     atom:   16    charge:    0.7168    magn:    0.0752    constr:    0.0000
     atom:   17    charge:    0.7169    magn:    0.0752    constr:    0.0000
     atom:   18    charge:    0.7170    magn:    0.0761    constr:    0.0000
     atom:   19    charge:    0.7171    magn:    0.0742    constr:    0.0000
     atom:   20    charge:    0.7175    magn:    0.0752    constr:    0.0000
     atom:   21    charge:    0.7175    magn:    0.0746    constr:    0.0000
     atom:   22    charge:    0.7169    magn:    0.0752    constr:    0.0000
     atom:   23    charge:    0.7169    magn:    0.0752    constr:    0.0000
     atom:   24    charge:    0.7171    magn:    0.0747    constr:    0.0000
     atom:   25    charge:    0.7171    magn:    0.0760    constr:    0.0000
     atom:   26    charge:    0.7173    magn:    0.0756    constr:    0.0000
     atom:   27    charge:    0.7173    magn:    0.0754    constr:    0.0000
     atom:   28    charge:    0.7159    magn:    0.0697    constr:    0.0000
     atom:   29    charge:    0.7159    magn:    0.0698    constr:    0.0000
     atom:   30    charge:    0.7159    magn:    0.0721    constr:    0.0000
     atom:   31    charge:    0.7165    magn:    0.0721    constr:    0.0000
     atom:   32    charge:    0.7166    magn:    0.0721    constr:    0.0000
     atom:   33    charge:    0.7166    magn:    0.0722    constr:    0.0000
     atom:   34    charge:    0.7170    magn:    0.0710    constr:    0.0000
     atom:   35    charge:    0.7170    magn:    0.0710    constr:    0.0000
     atom:   36    charge:    0.7171    magn:    0.0709    constr:    0.0000
     atom:   37    charge:    0.6406    magn:    0.0671    constr:    0.0000
     atom:   38    charge:    2.0024    magn:    0.1678    constr:    0.0000
     atom:   39    charge:    2.0114    magn:    0.1532    constr:    0.0000
     atom:   40    charge:    0.3882    magn:   -0.0060    constr:    0.0000

     total cpu time spent up to now is     1121.2 secs

     total energy              =   -2735.46817972 Ry
     Harris-Foulkes estimate   =   -2735.41206696 Ry
     estimated scf accuracy    <       0.08689704 Ry

     total magnetization       =    18.32 Bohr mag/cell
     absolute magnetization    =    19.08 Bohr mag/cell

     iteration #  9     ecut=    29.40 Ry     beta=0.10
     Davidson diagonalization with overlap
     c_bands:  2 eigenvalues not converged
     ethr =  2.30E-05,  avg # of iterations =  8.5

     negative rho (up, down):  2.630E-02 3.237E-02
 
     Magnetic moment per site:
     atom:    1    charge:    0.7250    magn:    0.0217    constr:    0.0000
     atom:    2    charge:    0.7226    magn:    0.0502    constr:    0.0000
     atom:    3    charge:    0.7195    magn:    0.0503    constr:    0.0000
     atom:    4    charge:    0.7216    magn:    0.0517    constr:    0.0000
     atom:    5    charge:    0.7215    magn:    0.0514    constr:    0.0000
     atom:    6    charge:    0.7218    magn:    0.0516    constr:    0.0000
     atom:    7    charge:    0.7187    magn:    0.0456    constr:    0.0000
     atom:    8    charge:    0.7207    magn:    0.0490    constr:    0.0000
     atom:    9    charge:    0.7198    magn:    0.0492    constr:    0.0000
     atom:   10    charge:    0.7233    magn:    0.0501    constr:    0.0000
     atom:   11    charge:    0.7229    magn:    0.0526    constr:    0.0000
     atom:   12    charge:    0.7219    magn:    0.0561    constr:    0.0000
     atom:   13    charge:    0.7224    magn:    0.0576    constr:    0.0000
     atom:   14    charge:    0.7224    magn:    0.0573    constr:    0.0000
     atom:   15    charge:    0.7231    magn:    0.0572    constr:    0.0000
     atom:   16    charge:    0.7227    magn:    0.0583    constr:    0.0000
     atom:   17    charge:    0.7227    magn:    0.0584    constr:    0.0000
     atom:   18    charge:    0.7227    magn:    0.0594    constr:    0.0000
     atom:   19    charge:    0.7231    magn:    0.0568    constr:    0.0000
     atom:   20    charge:    0.7233    magn:    0.0586    constr:    0.0000
     atom:   21    charge:    0.7234    magn:    0.0578    constr:    0.0000
     atom:   22    charge:    0.7229    magn:    0.0581    constr:    0.0000
     atom:   23    charge:    0.7229    magn:    0.0580    constr:    0.0000
     atom:   24    charge:    0.7229    magn:    0.0579    constr:    0.0000
     atom:   25    charge:    0.7234    magn:    0.0589    constr:    0.0000
     atom:   26    charge:    0.7234    magn:    0.0588    constr:    0.0000
     atom:   27    charge:    0.7234    magn:    0.0585    constr:    0.0000
     atom:   28    charge:    0.7212    magn:    0.0511    constr:    0.0000
     atom:   29    charge:    0.7212    magn:    0.0513    constr:    0.0000
     atom:   30    charge:    0.7211    magn:    0.0540    constr:    0.0000
     atom:   31    charge:    0.7214    magn:    0.0544    constr:    0.0000
     atom:   32    charge:    0.7214    magn:    0.0546    constr:    0.0000
     atom:   33    charge:    0.7214    magn:    0.0547    constr:    0.0000
     atom:   34    charge:    0.7205    magn:    0.0529    constr:    0.0000
     atom:   35    charge:    0.7205    magn:    0.0529    constr:    0.0000
     atom:   36    charge:    0.7204    magn:    0.0533    constr:    0.0000
     atom:   37    charge:    0.6449    magn:    0.0170    constr:    0.0000
     atom:   38    charge:    1.9865    magn:    0.0584    constr:    0.0000
     atom:   39    charge:    1.9878    magn:    0.0451    constr:    0.0000
     atom:   40    charge:    0.4033    magn:   -0.0115    constr:    0.0000

     total cpu time spent up to now is     1263.2 secs

     total energy              =   -2735.52394163 Ry
     Harris-Foulkes estimate   =   -2735.47255353 Ry
     estimated scf accuracy    <       0.05316713 Ry

     total magnetization       =    16.75 Bohr mag/cell
     absolute magnetization    =    17.63 Bohr mag/cell

     iteration # 10     ecut=    29.40 Ry     beta=0.10
     Davidson diagonalization with overlap
     ethr =  1.41E-05,  avg # of iterations =  8.9

     negative rho (up, down):  2.666E-02 3.273E-02
 
     Magnetic moment per site:
     atom:    1    charge:    0.7262    magn:    0.0146    constr:    0.0000
     atom:    2    charge:    0.7236    magn:    0.0434    constr:    0.0000
     atom:    3    charge:    0.7205    magn:    0.0436    constr:    0.0000
     atom:    4    charge:    0.7230    magn:    0.0452    constr:    0.0000
     atom:    5    charge:    0.7229    magn:    0.0448    constr:    0.0000
     atom:    6    charge:    0.7232    magn:    0.0450    constr:    0.0000
     atom:    7    charge:    0.7202    magn:    0.0386    constr:    0.0000
     atom:    8    charge:    0.7222    magn:    0.0421    constr:    0.0000
     atom:    9    charge:    0.7213    magn:    0.0423    constr:    0.0000
     atom:   10    charge:    0.7251    magn:    0.0437    constr:    0.0000
     atom:   11    charge:    0.7247    magn:    0.0462    constr:    0.0000
     atom:   12    charge:    0.7237    magn:    0.0500    constr:    0.0000
     atom:   13    charge:    0.7243    magn:    0.0515    constr:    0.0000
     atom:   14    charge:    0.7242    magn:    0.0512    constr:    0.0000
     atom:   15    charge:    0.7249    magn:    0.0511    constr:    0.0000
     atom:   16    charge:    0.7244    magn:    0.0523    constr:    0.0000
     atom:   17    charge:    0.7246    magn:    0.0525    constr:    0.0000
     atom:   18    charge:    0.7245    magn:    0.0534    constr:    0.0000
     atom:   19    charge:    0.7248    magn:    0.0507    constr:    0.0000
     atom:   20    charge:    0.7251    magn:    0.0527    constr:    0.0000
     atom:   21    charge:    0.7252    magn:    0.0519    constr:    0.0000
     atom:   22    charge:    0.7247    magn:    0.0521    constr:    0.0000
     atom:   23    charge:    0.7247    magn:    0.0520    constr:    0.0000
     atom:   24    charge:    0.7248    magn:    0.0519    constr:    0.0000
     atom:   25    charge:    0.7251    magn:    0.0529    constr:    0.0000
     atom:   26    charge:    0.7252    magn:    0.0528    constr:    0.0000
     atom:   27    charge:    0.7252    magn:    0.0525    constr:    0.0000
     atom:   28    charge:    0.7226    magn:    0.0445    constr:    0.0000
     atom:   29    charge:    0.7226    magn:    0.0447    constr:    0.0000
     atom:   30    charge:    0.7227    magn:    0.0475    constr:    0.0000
     atom:   31    charge:    0.7227    magn:    0.0483    constr:    0.0000
     atom:   32    charge:    0.7228    magn:    0.0485    constr:    0.0000
     atom:   33    charge:    0.7228    magn:    0.0485    constr:    0.0000
     atom:   34    charge:    0.7217    magn:    0.0466    constr:    0.0000
     atom:   35    charge:    0.7217    magn:    0.0466    constr:    0.0000
     atom:   36    charge:    0.7216    magn:    0.0470    constr:    0.0000
     atom:   37    charge:    0.6452    magn:    0.0022    constr:    0.0000
     atom:   38    charge:    1.9833    magn:    0.0251    constr:    0.0000
     atom:   39    charge:    1.9837    magn:    0.0130    constr:    0.0000
     atom:   40    charge:    0.4071    magn:   -0.0122    constr:    0.0000

     total cpu time spent up to now is     1418.3 secs

     total energy              =   -2735.54551815 Ry
     Harris-Foulkes estimate   =   -2735.53714829 Ry
     estimated scf accuracy    <       0.01820442 Ry

     total magnetization       =    13.11 Bohr mag/cell
     absolute magnetization    =    14.26 Bohr mag/cell

     iteration # 11     ecut=    29.40 Ry     beta=0.10
     Davidson diagonalization with overlap
     ethr =  4.83E-06,  avg # of iterations =  2.6

     negative rho (up, down):  2.573E-02 3.118E-02
 
     Magnetic moment per site:
     atom:    1    charge:    0.7268    magn:    0.0103    constr:    0.0000
     atom:    2    charge:    0.7241    magn:    0.0380    constr:    0.0000
     atom:    3    charge:    0.7210    magn:    0.0382    constr:    0.0000
     atom:    4    charge:    0.7237    magn:    0.0399    constr:    0.0000
     atom:    5    charge:    0.7235    magn:    0.0395    constr:    0.0000
     atom:    6    charge:    0.7240    magn:    0.0397    constr:    0.0000
     atom:    7    charge:    0.7209    magn:    0.0331    constr:    0.0000
     atom:    8    charge:    0.7229    magn:    0.0365    constr:    0.0000
     atom:    9    charge:    0.7221    magn:    0.0368    constr:    0.0000
     atom:   10    charge:    0.7258    magn:    0.0389    constr:    0.0000
     atom:   11    charge:    0.7253    magn:    0.0413    constr:    0.0000
     atom:   12    charge:    0.7244    magn:    0.0453    constr:    0.0000
     atom:   13    charge:    0.7249    magn:    0.0467    constr:    0.0000
     atom:   14    charge:    0.7249    magn:    0.0464    constr:    0.0000
     atom:   15    charge:    0.7256    magn:    0.0462    constr:    0.0000
     atom:   16    charge:    0.7252    magn:    0.0476    constr:    0.0000
     atom:   17    charge:    0.7253    magn:    0.0478    constr:    0.0000
     atom:   18    charge:    0.7254    magn:    0.0487    constr:    0.0000
     atom:   19    charge:    0.7256    magn:    0.0458    constr:    0.0000
     atom:   20    charge:    0.7260    magn:    0.0479    constr:    0.0000
     atom:   21    charge:    0.7260    magn:    0.0471    constr:    0.0000
     atom:   22    charge:    0.7255    magn:    0.0472    constr:    0.0000
     atom:   23    charge:    0.7255    magn:    0.0471    constr:    0.0000
     atom:   24    charge:    0.7256    magn:    0.0471    constr:    0.0000
     atom:   25    charge:    0.7258    magn:    0.0481    constr:    0.0000
     atom:   26    charge:    0.7259    magn:    0.0481    constr:    0.0000
     atom:   27    charge:    0.7259    magn:    0.0478    constr:    0.0000
     atom:   28    charge:    0.7233    magn:    0.0392    constr:    0.0000
     atom:   29    charge:    0.7233    magn:    0.0393    constr:    0.0000
     atom:   30    charge:    0.7233    magn:    0.0422    constr:    0.0000
     atom:   31    charge:    0.7234    magn:    0.0433    constr:    0.0000
     atom:   32    charge:    0.7234    magn:    0.0436    constr:    0.0000
     atom:   33    charge:    0.7234    magn:    0.0436    constr:    0.0000
     atom:   34    charge:    0.7221    magn:    0.0415    constr:    0.0000
     atom:   35    charge:    0.7221    magn:    0.0415    constr:    0.0000
     atom:   36    charge:    0.7220    magn:    0.0421    constr:    0.0000
     atom:   37    charge:    0.6440    magn:   -0.0054    constr:    0.0000
     atom:   38    charge:    1.9832    magn:    0.0063    constr:    0.0000
     atom:   39    charge:    1.9861    magn:   -0.0040    constr:    0.0000
     atom:   40    charge:    0.4080    magn:   -0.0112    constr:    0.0000

     total cpu time spent up to now is     1519.7 secs

     total energy              =   -2735.55179236 Ry
     Harris-Foulkes estimate   =   -2735.54743884 Ry
     estimated scf accuracy    <       0.00927208 Ry

     total magnetization       =    11.72 Bohr mag/cell
     absolute magnetization    =    12.97 Bohr mag/cell

     iteration # 12     ecut=    29.40 Ry     beta=0.10
     Davidson diagonalization with overlap
     ethr =  2.46E-06,  avg # of iterations =  5.5

     negative rho (up, down):  2.428E-02 2.875E-02
 
     Magnetic moment per site:
     atom:    1    charge:    0.7272    magn:    0.0075    constr:    0.0000
     atom:    2    charge:    0.7243    magn:    0.0333    constr:    0.0000
     atom:    3    charge:    0.7213    magn:    0.0335    constr:    0.0000
     atom:    4    charge:    0.7241    magn:    0.0353    constr:    0.0000
     atom:    5    charge:    0.7240    magn:    0.0349    constr:    0.0000
     atom:    6    charge:    0.7244    magn:    0.0351    constr:    0.0000
     atom:    7    charge:    0.7214    magn:    0.0283    constr:    0.0000
     atom:    8    charge:    0.7233    magn:    0.0317    constr:    0.0000
     atom:    9    charge:    0.7225    magn:    0.0319    constr:    0.0000
     atom:   10    charge:    0.7261    magn:    0.0347    constr:    0.0000
     atom:   11    charge:    0.7256    magn:    0.0370    constr:    0.0000
     atom:   12    charge:    0.7247    magn:    0.0411    constr:    0.0000
     atom:   13    charge:    0.7253    magn:    0.0424    constr:    0.0000
     atom:   14    charge:    0.7252    magn:    0.0421    constr:    0.0000
     atom:   15    charge:    0.7259    magn:    0.0420    constr:    0.0000
     atom:   16    charge:    0.7256    magn:    0.0435    constr:    0.0000
     atom:   17    charge:    0.7258    magn:    0.0437    constr:    0.0000
     atom:   18    charge:    0.7258    magn:    0.0446    constr:    0.0000
     atom:   19    charge:    0.7261    magn:    0.0415    constr:    0.0000
     atom:   20    charge:    0.7265    magn:    0.0437    constr:    0.0000
     atom:   21    charge:    0.7264    magn:    0.0430    constr:    0.0000
     atom:   22    charge:    0.7259    magn:    0.0429    constr:    0.0000
     atom:   23    charge:    0.7260    magn:    0.0428    constr:    0.0000
     atom:   24    charge:    0.7260    magn:    0.0429    constr:    0.0000
     atom:   25    charge:    0.7262    magn:    0.0438    constr:    0.0000
     atom:   26    charge:    0.7263    magn:    0.0439    constr:    0.0000
     atom:   27    charge:    0.7262    magn:    0.0436    constr:    0.0000
     atom:   28    charge:    0.7236    magn:    0.0345    constr:    0.0000
     atom:   29    charge:    0.7237    magn:    0.0347    constr:    0.0000
     atom:   30    charge:    0.7237    magn:    0.0375    constr:    0.0000
     atom:   31    charge:    0.7237    magn:    0.0390    constr:    0.0000
     atom:   32    charge:    0.7237    magn:    0.0393    constr:    0.0000
     atom:   33    charge:    0.7237    magn:    0.0393    constr:    0.0000
     atom:   34    charge:    0.7222    magn:    0.0371    constr:    0.0000
     atom:   35    charge:    0.7222    magn:    0.0371    constr:    0.0000
     atom:   36    charge:    0.7222    magn:    0.0378    constr:    0.0000
     atom:   37    charge:    0.6425    magn:   -0.0092    constr:    0.0000
     atom:   38    charge:    1.9834    magn:   -0.0049    constr:    0.0000
     atom:   39    charge:    1.9888    magn:   -0.0130    constr:    0.0000
     atom:   40    charge:    0.4078    magn:   -0.0092    constr:    0.0000

     total cpu time spent up to now is     1641.6 secs

     total energy              =   -2735.55624462 Ry
     Harris-Foulkes estimate   =   -2735.55291683 Ry
     estimated scf accuracy    <       0.00696484 Ry

     total magnetization       =    10.58 Bohr mag/cell
     absolute magnetization    =    11.84 Bohr mag/cell

     iteration # 13     ecut=    29.40 Ry     beta=0.10
     Davidson diagonalization with overlap
     ethr =  1.85E-06,  avg # of iterations =  3.8

     negative rho (up, down):  2.259E-02 2.606E-02
 
     Magnetic moment per site:
     atom:    1    charge:    0.7272    magn:    0.0059    constr:    0.0000
     atom:    2    charge:    0.7243    magn:    0.0297    constr:    0.0000
     atom:    3    charge:    0.7214    magn:    0.0300    constr:    0.0000
     atom:    4    charge:    0.7243    magn:    0.0319    constr:    0.0000
     atom:    5    charge:    0.7241    magn:    0.0315    constr:    0.0000
     atom:    6    charge:    0.7246    magn:    0.0316    constr:    0.0000
     atom:    7    charge:    0.7215    magn:    0.0248    constr:    0.0000
     atom:    8    charge:    0.7235    magn:    0.0280    constr:    0.0000
     atom:    9    charge:    0.7226    magn:    0.0283    constr:    0.0000
     atom:   10    charge:    0.7261    magn:    0.0317    constr:    0.0000
     atom:   11    charge:    0.7256    magn:    0.0338    constr:    0.0000
     atom:   12    charge:    0.7247    magn:    0.0379    constr:    0.0000
     atom:   13    charge:    0.7254    magn:    0.0391    constr:    0.0000
     atom:   14    charge:    0.7253    magn:    0.0389    constr:    0.0000
     atom:   15    charge:    0.7260    magn:    0.0387    constr:    0.0000
     atom:   16    charge:    0.7257    magn:    0.0403    constr:    0.0000
     atom:   17    charge:    0.7259    magn:    0.0405    constr:    0.0000
     atom:   18    charge:    0.7259    magn:    0.0415    constr:    0.0000
     atom:   19    charge:    0.7262    magn:    0.0383    constr:    0.0000
     atom:   20    charge:    0.7265    magn:    0.0405    constr:    0.0000
     atom:   21    charge:    0.7266    magn:    0.0398    constr:    0.0000
     atom:   22    charge:    0.7260    magn:    0.0396    constr:    0.0000
     atom:   23    charge:    0.7260    magn:    0.0396    constr:    0.0000
     atom:   24    charge:    0.7261    magn:    0.0397    constr:    0.0000
     atom:   25    charge:    0.7262    magn:    0.0405    constr:    0.0000
     atom:   26    charge:    0.7263    magn:    0.0407    constr:    0.0000
     atom:   27    charge:    0.7263    magn:    0.0404    constr:    0.0000
     atom:   28    charge:    0.7237    magn:    0.0310    constr:    0.0000
     atom:   29    charge:    0.7237    magn:    0.0312    constr:    0.0000
     atom:   30    charge:    0.7238    magn:    0.0339    constr:    0.0000
     atom:   31    charge:    0.7237    magn:    0.0357    constr:    0.0000
     atom:   32    charge:    0.7238    magn:    0.0360    constr:    0.0000
     atom:   33    charge:    0.7238    magn:    0.0360    constr:    0.0000
     atom:   34    charge:    0.7222    magn:    0.0338    constr:    0.0000
     atom:   35    charge:    0.7222    magn:    0.0337    constr:    0.0000
     atom:   36    charge:    0.7222    magn:    0.0346    constr:    0.0000
     atom:   37    charge:    0.6415    magn:   -0.0106    constr:    0.0000
     atom:   38    charge:    1.9838    magn:   -0.0104    constr:    0.0000
     atom:   39    charge:    1.9905    magn:   -0.0168    constr:    0.0000
     atom:   40    charge:    0.4071    magn:   -0.0074    constr:    0.0000

     total cpu time spent up to now is     1750.7 secs

     total energy              =   -2735.55979545 Ry
     Harris-Foulkes estimate   =   -2735.55712622 Ry
     estimated scf accuracy    <       0.00457167 Ry

     total magnetization       =     9.59 Bohr mag/cell
     absolute magnetization    =    10.81 Bohr mag/cell

     iteration # 14     ecut=    29.40 Ry     beta=0.10
     Davidson diagonalization with overlap
     ethr =  1.21E-06,  avg # of iterations =  6.6

     negative rho (up, down):  2.080E-02 2.366E-02
 
     Magnetic moment per site:
     atom:    1    charge:    0.7272    magn:    0.0052    constr:    0.0000
     atom:    2    charge:    0.7243    magn:    0.0278    constr:    0.0000
     atom:    3    charge:    0.7214    magn:    0.0280    constr:    0.0000
     atom:    4    charge:    0.7242    magn:    0.0300    constr:    0.0000
     atom:    5    charge:    0.7241    magn:    0.0296    constr:    0.0000
     atom:    6    charge:    0.7246    magn:    0.0297    constr:    0.0000
     atom:    7    charge:    0.7215    magn:    0.0229    constr:    0.0000
     atom:    8    charge:    0.7235    magn:    0.0261    constr:    0.0000
     atom:    9    charge:    0.7226    magn:    0.0263    constr:    0.0000
     atom:   10    charge:    0.7260    magn:    0.0300    constr:    0.0000
     atom:   11    charge:    0.7256    magn:    0.0320    constr:    0.0000
     atom:   12    charge:    0.7246    magn:    0.0361    constr:    0.0000
     atom:   13    charge:    0.7253    magn:    0.0372    constr:    0.0000
     atom:   14    charge:    0.7252    magn:    0.0371    constr:    0.0000
     atom:   15    charge:    0.7258    magn:    0.0369    constr:    0.0000
     atom:   16    charge:    0.7256    magn:    0.0385    constr:    0.0000
     atom:   17    charge:    0.7258    magn:    0.0388    constr:    0.0000
     atom:   18    charge:    0.7258    magn:    0.0397    constr:    0.0000
     atom:   19    charge:    0.7262    magn:    0.0365    constr:    0.0000
     atom:   20    charge:    0.7264    magn:    0.0387    constr:    0.0000
     atom:   21    charge:    0.7265    magn:    0.0380    constr:    0.0000
     atom:   22    charge:    0.7259    magn:    0.0378    constr:    0.0000
     atom:   23    charge:    0.7259    magn:    0.0377    constr:    0.0000
     atom:   24    charge:    0.7260    magn:    0.0379    constr:    0.0000
     atom:   25    charge:    0.7261    magn:    0.0386    constr:    0.0000
     atom:   26    charge:    0.7262    magn:    0.0389    constr:    0.0000
     atom:   27    charge:    0.7261    magn:    0.0386    constr:    0.0000
     atom:   28    charge:    0.7236    magn:    0.0291    constr:    0.0000
     atom:   29    charge:    0.7237    magn:    0.0292    constr:    0.0000
     atom:   30    charge:    0.7237    magn:    0.0319    constr:    0.0000
     atom:   31    charge:    0.7237    magn:    0.0339    constr:    0.0000
     atom:   32    charge:    0.7237    magn:    0.0341    constr:    0.0000
     atom:   33    charge:    0.7237    magn:    0.0342    constr:    0.0000
     atom:   34    charge:    0.7222    magn:    0.0319    constr:    0.0000
     atom:   35    charge:    0.7222    magn:    0.0319    constr:    0.0000
     atom:   36    charge:    0.7221    magn:    0.0328    constr:    0.0000
     atom:   37    charge:    0.6412    magn:   -0.0110    constr:    0.0000
     atom:   38    charge:    1.9844    magn:   -0.0126    constr:    0.0000
     atom:   39    charge:    1.9914    magn:   -0.0180    constr:    0.0000
     atom:   40    charge:    0.4066    magn:   -0.0063    constr:    0.0000

     total cpu time spent up to now is     1879.5 secs

     total energy              =   -2735.56191625 Ry
     Harris-Foulkes estimate   =   -2735.56030558 Ry
     estimated scf accuracy    <       0.00355292 Ry

     total magnetization       =     8.83 Bohr mag/cell
     absolute magnetization    =    10.01 Bohr mag/cell

     iteration # 15     ecut=    29.40 Ry     beta=0.10
     Davidson diagonalization with overlap
     ethr =  9.42E-07,  avg # of iterations =  4.2

     negative rho (up, down):  1.998E-02 2.006E-02
 
     Magnetic moment per site:
     atom:    1    charge:    0.7268    magn:    0.0037    constr:    0.0000
     atom:    2    charge:    0.7239    magn:    0.0214    constr:    0.0000
     atom:    3    charge:    0.7210    magn:    0.0216    constr:    0.0000
     atom:    4    charge:    0.7239    magn:    0.0235    constr:    0.0000
     atom:    5    charge:    0.7237    magn:    0.0231    constr:    0.0000
     atom:    6    charge:    0.7241    magn:    0.0233    constr:    0.0000
     atom:    7    charge:    0.7211    magn:    0.0168    constr:    0.0000
     atom:    8    charge:    0.7230    magn:    0.0195    constr:    0.0000
     atom:    9    charge:    0.7221    magn:    0.0198    constr:    0.0000
     atom:   10    charge:    0.7254    magn:    0.0243    constr:    0.0000
     atom:   11    charge:    0.7249    magn:    0.0260    constr:    0.0000
     atom:   12    charge:    0.7239    magn:    0.0300    constr:    0.0000
     atom:   13    charge:    0.7246    magn:    0.0309    constr:    0.0000
     atom:   14    charge:    0.7245    magn:    0.0309    constr:    0.0000
     atom:   15    charge:    0.7252    magn:    0.0307    constr:    0.0000
     atom:   16    charge:    0.7250    magn:    0.0324    constr:    0.0000
     atom:   17    charge:    0.7251    magn:    0.0327    constr:    0.0000
     atom:   18    charge:    0.7251    magn:    0.0336    constr:    0.0000
     atom:   19    charge:    0.7256    magn:    0.0303    constr:    0.0000
     atom:   20    charge:    0.7258    magn:    0.0324    constr:    0.0000
     atom:   21    charge:    0.7258    magn:    0.0318    constr:    0.0000
     atom:   22    charge:    0.7252    magn:    0.0315    constr:    0.0000
     atom:   23    charge:    0.7252    magn:    0.0315    constr:    0.0000
     atom:   24    charge:    0.7253    magn:    0.0317    constr:    0.0000
     atom:   25    charge:    0.7254    magn:    0.0322    constr:    0.0000
     atom:   26    charge:    0.7255    magn:    0.0327    constr:    0.0000
     atom:   27    charge:    0.7255    magn:    0.0325    constr:    0.0000
     atom:   28    charge:    0.7232    magn:    0.0227    constr:    0.0000
     atom:   29    charge:    0.7232    magn:    0.0227    constr:    0.0000
     atom:   30    charge:    0.7232    magn:    0.0251    constr:    0.0000
     atom:   31    charge:    0.7231    magn:    0.0277    constr:    0.0000
     atom:   32    charge:    0.7232    magn:    0.0279    constr:    0.0000
     atom:   33    charge:    0.7232    magn:    0.0279    constr:    0.0000
     atom:   34    charge:    0.7217    magn:    0.0258    constr:    0.0000
     atom:   35    charge:    0.7218    magn:    0.0257    constr:    0.0000
     atom:   36    charge:    0.7218    magn:    0.0267    constr:    0.0000
     atom:   37    charge:    0.6406    magn:   -0.0096    constr:    0.0000
     atom:   38    charge:    1.9859    magn:   -0.0145    constr:    0.0000
     atom:   39    charge:    1.9921    magn:   -0.0165    constr:    0.0000
     atom:   40    charge:    0.4045    magn:   -0.0023    constr:    0.0000

     total cpu time spent up to now is     1990.7 secs

     total energy              =   -2735.56553409 Ry
     Harris-Foulkes estimate   =   -2735.56209395 Ry
     estimated scf accuracy    <       0.00336270 Ry

     total magnetization       =     8.40 Bohr mag/cell
     absolute magnetization    =     9.54 Bohr mag/cell

     iteration # 16     ecut=    29.40 Ry     beta=0.10
     Davidson diagonalization with overlap
     ethr =  8.92E-07,  avg # of iterations =  6.0

     negative rho (up, down):  2.008E-02 1.692E-02
 
     Magnetic moment per site:
     atom:    1    charge:    0.7264    magn:    0.0018    constr:    0.0000
     atom:    2    charge:    0.7236    magn:    0.0139    constr:    0.0000
     atom:    3    charge:    0.7206    magn:    0.0141    constr:    0.0000
     atom:    4    charge:    0.7234    magn:    0.0160    constr:    0.0000
     atom:    5    charge:    0.7233    magn:    0.0156    constr:    0.0000
     atom:    6    charge:    0.7236    magn:    0.0158    constr:    0.0000
     atom:    7    charge:    0.7207    magn:    0.0098    constr:    0.0000
     atom:    8    charge:    0.7225    magn:    0.0120    constr:    0.0000
     atom:    9    charge:    0.7216    magn:    0.0122    constr:    0.0000
     atom:   10    charge:    0.7248    magn:    0.0177    constr:    0.0000
     atom:   11    charge:    0.7243    magn:    0.0188    constr:    0.0000
     atom:   12    charge:    0.7233    magn:    0.0228    constr:    0.0000
     atom:   13    charge:    0.7240    magn:    0.0234    constr:    0.0000
     atom:   14    charge:    0.7238    magn:    0.0235    constr:    0.0000
     atom:   15    charge:    0.7245    magn:    0.0234    constr:    0.0000
     atom:   16    charge:    0.7243    magn:    0.0251    constr:    0.0000
     atom:   17    charge:    0.7244    magn:    0.0254    constr:    0.0000
     atom:   18    charge:    0.7244    magn:    0.0264    constr:    0.0000
     atom:   19    charge:    0.7249    magn:    0.0230    constr:    0.0000
     atom:   20    charge:    0.7250    magn:    0.0249    constr:    0.0000
     atom:   21    charge:    0.7251    magn:    0.0245    constr:    0.0000
     atom:   22    charge:    0.7245    magn:    0.0241    constr:    0.0000
     atom:   23    charge:    0.7245    magn:    0.0241    constr:    0.0000
     atom:   24    charge:    0.7245    magn:    0.0244    constr:    0.0000
     atom:   25    charge:    0.7247    magn:    0.0246    constr:    0.0000
     atom:   26    charge:    0.7247    magn:    0.0254    constr:    0.0000
     atom:   27    charge:    0.7247    magn:    0.0252    constr:    0.0000
     atom:   28    charge:    0.7227    magn:    0.0152    constr:    0.0000
     atom:   29    charge:    0.7227    magn:    0.0152    constr:    0.0000
     atom:   30    charge:    0.7227    magn:    0.0173    constr:    0.0000
     atom:   31    charge:    0.7226    magn:    0.0204    constr:    0.0000
     atom:   32    charge:    0.7226    magn:    0.0206    constr:    0.0000
     atom:   33    charge:    0.7226    magn:    0.0206    constr:    0.0000
     atom:   34    charge:    0.7214    magn:    0.0186    constr:    0.0000
     atom:   35    charge:    0.7214    magn:    0.0184    constr:    0.0000
     atom:   36    charge:    0.7214    magn:    0.0197    constr:    0.0000
     atom:   37    charge:    0.6401    magn:   -0.0081    constr:    0.0000
     atom:   38    charge:    1.9876    magn:   -0.0168    constr:    0.0000
     atom:   39    charge:    1.9929    magn:   -0.0152    constr:    0.0000
     atom:   40    charge:    0.4023    magn:    0.0020    constr:    0.0000

     total cpu time spent up to now is     2115.4 secs

     total energy              =   -2735.56910239 Ry
     Harris-Foulkes estimate   =   -2735.56718467 Ry
     estimated scf accuracy    <       0.00171913 Ry

     total magnetization       =     6.95 Bohr mag/cell
     absolute magnetization    =     7.92 Bohr mag/cell

     iteration # 17     ecut=    29.40 Ry     beta=0.10
     Davidson diagonalization with overlap
     ethr =  4.56E-07,  avg # of iterations =  7.5

     negative rho (up, down):  1.899E-02 1.544E-02
 
     Magnetic moment per site:
     atom:    1    charge:    0.7263    magn:    0.0010    constr:    0.0000
     atom:    2    charge:    0.7235    magn:    0.0116    constr:    0.0000
     atom:    3    charge:    0.7205    magn:    0.0118    constr:    0.0000
     atom:    4    charge:    0.7233    magn:    0.0136    constr:    0.0000
     atom:    5    charge:    0.7232    magn:    0.0133    constr:    0.0000
     atom:    6    charge:    0.7236    magn:    0.0134    constr:    0.0000
     atom:    7    charge:    0.7206    magn:    0.0076    constr:    0.0000
     atom:    8    charge:    0.7224    magn:    0.0097    constr:    0.0000
     atom:    9    charge:    0.7215    magn:    0.0099    constr:    0.0000
     atom:   10    charge:    0.7247    magn:    0.0156    constr:    0.0000
     atom:   11    charge:    0.7242    magn:    0.0166    constr:    0.0000
     atom:   12    charge:    0.7232    magn:    0.0205    constr:    0.0000
     atom:   13    charge:    0.7239    magn:    0.0210    constr:    0.0000
     atom:   14    charge:    0.7237    magn:    0.0212    constr:    0.0000
     atom:   15    charge:    0.7244    magn:    0.0210    constr:    0.0000
     atom:   16    charge:    0.7242    magn:    0.0228    constr:    0.0000
     atom:   17    charge:    0.7243    magn:    0.0231    constr:    0.0000
     atom:   18    charge:    0.7243    magn:    0.0241    constr:    0.0000
     atom:   19    charge:    0.7248    magn:    0.0206    constr:    0.0000
     atom:   20    charge:    0.7249    magn:    0.0225    constr:    0.0000
     atom:   21    charge:    0.7250    magn:    0.0221    constr:    0.0000
     atom:   22    charge:    0.7244    magn:    0.0218    constr:    0.0000
     atom:   23    charge:    0.7244    magn:    0.0217    constr:    0.0000
     atom:   24    charge:    0.7244    magn:    0.0221    constr:    0.0000
     atom:   25    charge:    0.7246    magn:    0.0222    constr:    0.0000
     atom:   26    charge:    0.7246    magn:    0.0231    constr:    0.0000
     atom:   27    charge:    0.7246    magn:    0.0229    constr:    0.0000
     atom:   28    charge:    0.7226    magn:    0.0128    constr:    0.0000
     atom:   29    charge:    0.7226    magn:    0.0129    constr:    0.0000
     atom:   30    charge:    0.7226    magn:    0.0148    constr:    0.0000
     atom:   31    charge:    0.7225    magn:    0.0180    constr:    0.0000
     atom:   32    charge:    0.7225    magn:    0.0183    constr:    0.0000
     atom:   33    charge:    0.7225    magn:    0.0182    constr:    0.0000
     atom:   34    charge:    0.7213    magn:    0.0163    constr:    0.0000
     atom:   35    charge:    0.7213    magn:    0.0162    constr:    0.0000
     atom:   36    charge:    0.7214    magn:    0.0174    constr:    0.0000
     atom:   37    charge:    0.6400    magn:   -0.0084    constr:    0.0000
     atom:   38    charge:    1.9881    magn:   -0.0189    constr:    0.0000
     atom:   39    charge:    1.9933    magn:   -0.0163    constr:    0.0000
     atom:   40    charge:    0.4019    magn:    0.0029    constr:    0.0000

     total cpu time spent up to now is     2274.6 secs

     total energy              =   -2735.57215871 Ry
     Harris-Foulkes estimate   =   -2735.57150501 Ry
     estimated scf accuracy    <       0.00629128 Ry

     total magnetization       =     5.19 Bohr mag/cell
     absolute magnetization    =     5.95 Bohr mag/cell

     iteration # 18     ecut=    29.40 Ry     beta=0.10
     Davidson diagonalization with overlap
     ethr =  4.56E-07,  avg # of iterations =  4.2

     negative rho (up, down):  1.770E-02 1.412E-02
 
     Magnetic moment per site:
     atom:    1    charge:    0.7262    magn:    0.0007    constr:    0.0000
     atom:    2    charge:    0.7235    magn:    0.0103    constr:    0.0000
     atom:    3    charge:    0.7205    magn:    0.0104    constr:    0.0000
     atom:    4    charge:    0.7233    magn:    0.0122    constr:    0.0000
     atom:    5    charge:    0.7232    magn:    0.0119    constr:    0.0000
     atom:    6    charge:    0.7235    magn:    0.0120    constr:    0.0000
     atom:    7    charge:    0.7206    magn:    0.0064    constr:    0.0000
     atom:    8    charge:    0.7223    magn:    0.0084    constr:    0.0000
     atom:    9    charge:    0.7215    magn:    0.0086    constr:    0.0000
     atom:   10    charge:    0.7247    magn:    0.0143    constr:    0.0000
     atom:   11    charge:    0.7241    magn:    0.0152    constr:    0.0000
     atom:   12    charge:    0.7232    magn:    0.0191    constr:    0.0000
     atom:   13    charge:    0.7238    magn:    0.0195    constr:    0.0000
     atom:   14    charge:    0.7237    magn:    0.0197    constr:    0.0000
     atom:   15    charge:    0.7244    magn:    0.0196    constr:    0.0000
     atom:   16    charge:    0.7241    magn:    0.0213    constr:    0.0000
     atom:   17    charge:    0.7242    magn:    0.0217    constr:    0.0000
     atom:   18    charge:    0.7242    magn:    0.0226    constr:    0.0000
     atom:   19    charge:    0.7247    magn:    0.0192    constr:    0.0000
     atom:   20    charge:    0.7249    magn:    0.0210    constr:    0.0000
     atom:   21    charge:    0.7249    magn:    0.0207    constr:    0.0000
     atom:   22    charge:    0.7244    magn:    0.0203    constr:    0.0000
     atom:   23    charge:    0.7244    magn:    0.0203    constr:    0.0000
     atom:   24    charge:    0.7244    magn:    0.0206    constr:    0.0000
     atom:   25    charge:    0.7246    magn:    0.0207    constr:    0.0000
     atom:   26    charge:    0.7246    magn:    0.0216    constr:    0.0000
     atom:   27    charge:    0.7246    magn:    0.0214    constr:    0.0000
     atom:   28    charge:    0.7225    magn:    0.0115    constr:    0.0000
     atom:   29    charge:    0.7225    magn:    0.0115    constr:    0.0000
     atom:   30    charge:    0.7225    magn:    0.0134    constr:    0.0000
     atom:   31    charge:    0.7225    magn:    0.0166    constr:    0.0000
     atom:   32    charge:    0.7225    magn:    0.0169    constr:    0.0000
     atom:   33    charge:    0.7225    magn:    0.0168    constr:    0.0000
     atom:   34    charge:    0.7213    magn:    0.0149    constr:    0.0000
     atom:   35    charge:    0.7213    magn:    0.0148    constr:    0.0000
     atom:   36    charge:    0.7213    magn:    0.0161    constr:    0.0000
     atom:   37    charge:    0.6400    magn:   -0.0083    constr:    0.0000
     atom:   38    charge:    1.9884    magn:   -0.0193    constr:    0.0000
     atom:   39    charge:    1.9936    magn:   -0.0163    constr:    0.0000
     atom:   40    charge:    0.4018    magn:    0.0033    constr:    0.0000

     total cpu time spent up to now is     2385.0 secs

     total energy              =   -2735.57297346 Ry
     Harris-Foulkes estimate   =   -2735.57244688 Ry
     estimated scf accuracy    <       0.00087634 Ry

     total magnetization       =     4.60 Bohr mag/cell
     absolute magnetization    =     5.32 Bohr mag/cell

     iteration # 19     ecut=    29.40 Ry     beta=0.10
     Davidson diagonalization with overlap
     ethr =  2.32E-07,  avg # of iterations =  1.0

     negative rho (up, down):  1.671E-02 1.270E-02
 
     Magnetic moment per site:
     atom:    1    charge:    0.7261    magn:    0.0004    constr:    0.0000
     atom:    2    charge:    0.7234    magn:    0.0085    constr:    0.0000
     atom:    3    charge:    0.7204    magn:    0.0086    constr:    0.0000
     atom:    4    charge:    0.7232    magn:    0.0102    constr:    0.0000
     atom:    5    charge:    0.7230    magn:    0.0099    constr:    0.0000
[...]
    -2.9189  -2.8727  -2.8552  -2.8072  -2.7820  -2.7711  -2.7513  -2.7079
    -2.6716  -2.6563  -2.5981  -2.5638  -2.5425  -2.4932  -2.4744  -2.4465
    -2.4112  -2.3743  -2.3490  -2.3005  -2.2653  -2.2537  -2.1976  -2.1683
    -2.1655  -2.1439  -2.0774  -2.0526  -2.0277  -2.0024  -1.9637  -1.9385
    -1.9085  -1.8740  -1.8495  -1.7935  -1.7660  -1.7467  -1.6791  -1.6434
    -1.6255  -1.6162  -1.5821  -1.5434  -1.5192  -1.4878  -1.4721  -1.4514
    -1.3624  -1.3248  -1.3164  -1.2659  -1.1762  -1.1421  -1.1148  -1.0805
    -1.0688  -1.0214  -0.9856  -0.9508  -0.8564  -0.8156  -0.8107  -0.7957
    -0.7573  -0.7455  -0.7377  -0.7307  -0.7258  -0.7190  -0.6960  -0.6635
    -0.6368  -0.6073  -0.5685  -0.5281  -0.4970  -0.4215  -0.4160  -0.4051
    -0.3710  -0.3257  -0.2458  -0.2132  -0.0454   0.2692   0.3997   0.4405
     0.4539   0.4723   0.5887   0.6339   0.9888   1.1830   1.2645   1.4649
     1.5615   1.7330   1.9663   2.1718   2.2573   2.2816   2.2988   2.4820
     2.6895   2.8977   2.9501   2.9987   3.0795   3.3078   3.3715   3.5451
     3.7353   3.8744   3.9672   4.1312   4.2742   4.3708   4.4787   4.5416
     4.5658   4.6572   4.6731   4.8489   4.9896   5.1404   5.2499   5.2820
     5.3836   5.5040   5.5587   5.5922   5.6543   5.8001   5.8482   5.9797
     6.0282   6.1432   6.2909   6.4062   6.5594   6.6016   6.6894   6.7181
     6.7892   6.8737   6.9412   7.0123   7.1411   7.3011   7.3369   7.4416
     7.4613   7.5145   7.5457   7.6108   7.6531   7.7241   7.7844   7.8151
     7.8306   7.8620   7.9193   7.9828   7.9959   8.0557   8.1388   8.1839
     8.2197   8.2317   8.2723   8.3047   8.3302   8.3442   8.3806   8.4135
     8.4876   8.5064   8.5789   8.5991   8.6663   8.7280   8.7829   8.8488
     8.8915   8.9231   8.9848   9.0162   9.0392   9.0647   9.0928   9.1166
     9.1710   9.2645   9.3122   9.4290   9.4619   9.5356   9.5465   9.6493
     9.7118   9.7301   9.7364   9.7751   9.8432   9.8586   9.8903   9.9115
     9.9332   9.9923  10.0111  10.0315  10.0502  10.0892  10.1517  10.1622
    10.1900  10.2412  10.2973  10.3465  10.3706  10.3875  10.4825  10.4956
    10.5528  10.6188  10.6589  10.7164  10.7779  10.8172  10.8602  10.9072
    10.9588  10.9728  11.0011  11.0619  11.0804  11.1408  11.1484  11.1818
    11.2125  11.2467  11.2602  11.2932  11.3015  11.3620  11.4209  11.4477
    11.4957  11.5416  11.5911  11.6434  11.6546  11.6730  11.6906  11.7295
    11.7698  11.7952  11.8253  11.8578  11.8947  11.9091  11.9541  11.9812
    12.0056  12.0361  12.0774  12.1011  12.1195  12.1710  12.2148  12.2443
    12.3608  12.3821  12.4314  12.4673

          k = 0.0479 0.0000 0.0000 ( 44925 PWs)   bands (ev):

   -23.5597 -21.4129 -11.5070  -8.7824  -7.8892  -7.6469  -7.5630  -7.4482
    -6.9205  -6.9074  -6.8390  -6.7004  -6.5358  -6.4983  -6.4272  -6.4150
    -6.4115  -6.3070  -6.2908  -6.2014  -6.1553  -6.1527  -5.9674  -5.8289
    -5.8022  -5.7977  -5.7262  -5.7133  -5.7085  -5.6831  -5.6538  -5.5814
    -5.4956  -5.4923  -5.4475  -5.4296  -5.3920  -5.3213  -5.3037  -5.2338
    -5.2034  -5.1944  -5.0945  -5.0912  -5.0682  -5.0424  -5.0282  -4.9945
    -4.9196  -4.8626  -4.8569  -4.8404  -4.6051  -4.5913  -4.5458  -4.5260
    -4.4837  -4.4673  -4.4552  -4.3649  -4.3522  -4.3020  -4.2530  -4.2462
    -4.1897  -4.1784  -4.1201  -4.0334  -4.0207  -3.9774  -3.9597  -3.9459
    -3.9274  -3.8796  -3.8166  -3.7611  -3.7518  -3.7348  -3.7010  -3.6939
    -3.6843  -3.6301  -3.6174  -3.6039  -3.5734  -3.5567  -3.5318  -3.5107
    -3.4752  -3.4694  -3.4460  -3.4336  -3.4211  -3.3905  -3.3622  -3.3583
    -3.3253  -3.3125  -3.2718  -3.2648  -3.2448  -3.1877  -3.1527  -3.1463
    -3.1357  -3.1205  -3.0686  -3.0452  -2.9783  -2.9078  -2.9058  -2.8716
    -2.8172  -2.7530  -2.7267  -2.6867  -2.6569  -2.6093  -2.5991  -2.5627
    -2.5501  -2.5122  -2.5043  -2.4626  -2.4006  -2.3279  -2.2679  -2.2431
    -2.2333  -2.2094  -2.1574  -2.1454  -2.1157  -2.0728  -2.0628  -2.0542
    -2.0154  -1.9896  -1.9816  -1.9716  -1.9476  -1.9011  -1.8479  -1.8158
    -1.8131  -1.7890  -1.7402  -1.7258  -1.6713  -1.6337  -1.5565  -1.5547
    -1.5241  -1.4947  -1.4746  -1.4596  -1.4487  -1.4172  -1.4096  -1.3724
    -1.3604  -1.2583  -1.2335  -1.2297  -1.2179  -1.1991  -1.1604  -1.1352
    -1.1312  -1.0936  -1.0875  -1.0700  -1.0229  -1.0100  -1.0009  -0.9811
    -0.9512  -0.9155  -0.9002  -0.8929  -0.8449  -0.8329  -0.7983  -0.7738
    -0.7710  -0.6352  -0.6213  -0.6174  -0.5994  -0.5820  -0.5517  -0.5043
    -0.4966  -0.4792  -0.4596  -0.4298  -0.4011  -0.3223  -0.2927  -0.2770
    -0.2581  -0.1752  -0.0244   0.1521   0.2598   0.2870   0.4273   0.7490
     0.9379   1.0012   1.4405   2.0593   2.1955   2.2149   2.6215   3.0415
     3.2673   3.5036   3.7345   3.8616   3.9165   4.0014   4.1053   4.1548
     4.5412   4.6532   4.6979   4.7304   4.8255   4.8473   4.8565   4.9204
     4.9931   5.2286   5.3267   5.3485   5.4244   5.4385   5.5547   5.6795
     5.7748   5.8229   5.8414   5.9014   5.9658   6.0251   6.0907   6.1782
     6.2410   6.2928   6.3311   6.3890   6.4123   6.5447   6.5819   6.5958
     6.7020   6.7096   6.7478   6.7711   6.8184   6.8652   6.8988   6.9141
     7.0317   7.0652   7.1197   7.1525   7.1967   7.2148   7.2792   7.2912
     7.3513   7.3804   7.4496   7.4764   7.5086   7.5472   7.6426   7.7329
     7.7855   7.8105   7.9051   7.9264   7.9584   8.0038   8.0130   8.0507
     8.1032   8.1592   8.2370   8.2644   8.3067   8.3194   8.3629   8.3891
     8.4256   8.5763   8.6418   8.7006   8.7658   8.8787   8.9492   8.9743
     9.0382   9.0948   9.1204   9.1565   9.1874   9.2663   9.2985   9.3319
     9.3713   9.4476   9.5986   9.6785   9.6918   9.7755   9.8314   9.8456
     9.8950   9.9413   9.9796  10.0083  10.0498  10.0852  10.1765  10.1952
    10.2175  10.2728  10.3454  10.3875  10.4599  10.5530  10.6177  10.6848
    10.7451  10.8097  10.8756  10.9503  10.9582  11.0054  11.0646  11.1149
    11.1624  11.2018  11.2831  11.3392  11.3632  11.3999  11.4130  11.4504
    11.4790  11.5324  11.5734  11.6363  11.6563  11.6955  11.7290  11.7648
    11.8301  11.8896  11.9587  11.9818  12.0227  12.0546  12.0755  12.1023
    12.1460  12.1825  12.2010  12.2563  12.2885  12.3255  12.3842  12.4189
    12.4552  12.5058  12.5248  12.5576  12.5697  12.6467  12.6660  12.7079
    12.7312  12.8041  12.8555  12.8808

          k = 0.0479 0.0391 0.0000 ( 44975 PWs)   bands (ev):

   -23.5599 -21.4128 -11.5069  -8.5002  -7.8375  -7.7009  -7.5793  -7.3567
    -7.2798  -6.8201  -6.7046  -6.6020  -6.5826  -6.5345  -6.4830  -6.4538
    -6.2473  -6.1973  -6.1863  -6.1620  -6.0777  -5.9659  -5.9566  -5.9353
    -5.8972  -5.7891  -5.7683  -5.7447  -5.7216  -5.7157  -5.6257  -5.5709
    -5.5497  -5.5291  -5.4631  -5.4093  -5.3510  -5.3094  -5.2872  -5.2351
    -5.1656  -5.1221  -5.1143  -5.0381  -5.0251  -4.9726  -4.9569  -4.9126
    -4.9026  -4.8682  -4.7809  -4.7081  -4.6558  -4.6384  -4.6004  -4.5349
    -4.5259  -4.5129  -4.4699  -4.4540  -4.4253  -4.3906  -4.3613  -4.2908
    -4.2649  -4.2092  -4.1758  -4.1505  -4.1402  -4.0718  -4.0181  -4.0106
    -3.9807  -3.9316  -3.9106  -3.8888  -3.8699  -3.8530  -3.8197  -3.7470
    -3.7174  -3.6878  -3.6739  -3.6475  -3.6317  -3.5733  -3.5575  -3.5548
    -3.5163  -3.4822  -3.4734  -3.4656  -3.4507  -3.4376  -3.3846  -3.3753
    -3.3340  -3.3177  -3.2581  -3.2489  -3.2221  -3.1880  -3.1790  -3.1370
    -3.1234  -3.0801  -3.0713  -3.0248  -2.9824  -2.9715  -2.9577  -2.9373
    -2.9153  -2.8396  -2.7882  -2.7648  -2.7146  -2.6904  -2.6473  -2.6351
    -2.5899  -2.5656  -2.5173  -2.4770  -2.4509  -2.4367  -2.4168  -2.3926
    -2.3701  -2.3296  -2.3005  -2.2680  -2.2438  -2.2084  -2.1786  -2.1491
    -2.0912  -2.0823  -2.0250  -1.9988  -1.9661  -1.9439  -1.9116  -1.8990
    -1.8690  -1.7780  -1.7566  -1.7316  -1.7057  -1.6753  -1.6219  -1.5925
    -1.5720  -1.5664  -1.5443  -1.4961  -1.4692  -1.4131  -1.4072  -1.3600
    -1.3437  -1.2986  -1.2691  -1.2225  -1.1868  -1.1738  -1.1409  -1.1193
    -1.0956  -1.0606  -1.0400  -1.0040  -0.9687  -0.9366  -0.8841  -0.8588
    -0.8405  -0.8049  -0.7478  -0.7010  -0.6920  -0.6542  -0.6287  -0.6142
    -0.5741  -0.5681  -0.5543  -0.5348  -0.5268  -0.4759  -0.4382  -0.4189
    -0.3898  -0.3651  -0.3381  -0.2683  -0.2547  -0.2217  -0.1996  -0.0070
     0.1583   0.2219   0.5755   0.6875   0.8152   1.0194   1.0922   1.3355
     1.3821   1.5345   1.7790   1.9204   2.1706   2.5331   2.6676   2.7594
     2.7886   3.0400   3.2976   3.3451   3.4435   3.6710   3.7737   3.9116
     4.0478   4.1483   4.3222   4.4221   4.5160   4.6923   4.8550   4.9178
     5.0367   5.0933   5.1922   5.3027   5.4049   5.4613   5.5494   5.6083
     5.6389   5.6808   5.7470   5.8197   5.8828   5.9063   5.9583   6.0301
     6.0635   6.1174   6.1495   6.1934   6.2341   6.2802   6.3688   6.3820
     6.4171   6.5443   6.5502   6.6048   6.6404   6.7186   6.7539   6.8954
     6.9538   7.0374   7.0821   7.1126   7.1651   7.2074   7.2857   7.2974
     7.3823   7.4259   7.4776   7.5606   7.6150   7.7208   7.8102   7.8378
     7.9308   8.0008   8.0520   8.1020   8.1746   8.2261   8.2872   8.3391
     8.3794   8.4690   8.4957   8.5320   8.6037   8.6459   8.7013   8.7606
     8.8211   8.8605   8.9706   9.0489   9.0897   9.1522   9.2085   9.2418
     9.2638   9.3198   9.3821   9.4228   9.4410   9.4925   9.5537   9.5971
     9.6544   9.6790   9.7347   9.8336   9.8759   9.9123   9.9619   9.9927
    10.0210  10.0990  10.1073  10.1573  10.1833  10.2330  10.2489  10.2662
    10.3743  10.4017  10.4575  10.4858  10.5217  10.5823  10.5947  10.6181
    10.6470  10.6616  10.6850  10.7454  10.7614  10.8071  10.8364  10.8644
    10.9155  10.9443  10.9936  11.0238  11.0729  11.1342  11.1780  11.2415
    11.3085  11.3435  11.3733  11.4022  11.4151  11.4699  11.4879  11.5395
    11.5580  11.5782  11.6145  11.6391  11.6648  11.7331  11.7731  11.7913
    11.8077  11.8454  11.8828  11.9370  11.9821  12.0416  12.0480  12.1164
    12.1602  12.1961  12.2173  12.2731  12.3054  12.3568  12.3923  12.4360
    12.4536  12.5055  12.5463  12.6030

          k =-0.0479 0.0391 0.0000 ( 44975 PWs)   bands (ev):

   -23.5598 -21.4129 -11.5067  -8.5003  -7.8371  -7.7014  -7.5785  -7.3572
    -7.2794  -6.8188  -6.7052  -6.5999  -6.5864  -6.5390  -6.4790  -6.4526
    -6.2467  -6.1976  -6.1854  -6.1641  -6.0748  -5.9644  -5.9577  -5.9421
    -5.8926  -5.7866  -5.7683  -5.7428  -5.7232  -5.7162  -5.6248  -5.5659
    -5.5489  -5.5338  -5.4621  -5.4153  -5.3625  -5.3094  -5.2872  -5.2301
    -5.1699  -5.1219  -5.1113  -5.0369  -5.0295  -4.9725  -4.9519  -4.9116
    -4.9031  -4.8615  -4.7804  -4.7108  -4.6573  -4.6331  -4.5999  -4.5379
    -4.5276  -4.5087  -4.4692  -4.4528  -4.4313  -4.3931  -4.3609  -4.2877
    -4.2592  -4.2068  -4.1757  -4.1566  -4.1416  -4.0695  -4.0224  -4.0129
    -3.9854  -3.9326  -3.9161  -3.8820  -3.8702  -3.8502  -3.8177  -3.7508
    -3.7209  -3.6886  -3.6702  -3.6450  -3.6323  -3.5724  -3.5561  -3.5363
    -3.5133  -3.4857  -3.4763  -3.4678  -3.4538  -3.4350  -3.3842  -3.3733
    -3.3374  -3.3171  -3.2686  -3.2476  -3.2222  -3.1930  -3.1702  -3.1473
    -3.1207  -3.0864  -3.0567  -3.0414  -2.9872  -2.9735  -2.9570  -2.9308
    -2.9193  -2.8038  -2.7870  -2.7649  -2.7123  -2.6839  -2.6464  -2.6303
    -2.6028  -2.5813  -2.5276  -2.4778  -2.4576  -2.4335  -2.4079  -2.3988
    -2.3781  -2.3310  -2.2796  -2.2539  -2.2354  -2.2130  -2.1910  -2.1687
    -2.0999  -2.0647  -2.0283  -2.0010  -1.9672  -1.9535  -1.9210  -1.8997
    -1.8546  -1.7811  -1.7555  -1.7255  -1.6954  -1.6643  -1.6274  -1.5936
    -1.5745  -1.5653  -1.5414  -1.5065  -1.4685  -1.4207  -1.4051  -1.3615
    -1.3426  -1.2841  -1.2650  -1.2174  -1.1979  -1.1761  -1.1405  -1.1215
    -1.0948  -1.0657  -1.0399  -1.0099  -0.9777  -0.9365  -0.8830  -0.8571
    -0.8399  -0.8059  -0.7469  -0.6975  -0.6847  -0.6539  -0.6295  -0.6133
    -0.5741  -0.5679  -0.5566  -0.5356  -0.5278  -0.4751  -0.4375  -0.4187
    -0.3901  -0.3646  -0.3374  -0.2669  -0.2543  -0.2222  -0.1996   0.0056
     0.1518   0.2205   0.5803   0.6892   0.8082   1.0175   1.0939   1.3315
     1.3823   1.5404   1.7775   1.9181   2.1697   2.5280   2.6676   2.7580
     2.7947   3.0410   3.3011   3.3519   3.4426   3.6720   3.7540   3.9088
     4.0448   4.1789   4.3292   4.3977   4.5174   4.6937   4.8561   4.9137
     5.0315   5.0926   5.1820   5.3307   5.4038   5.4598   5.5427   5.6127
     5.6357   5.6751   5.7474   5.8199   5.8841   5.9042   5.9604   6.0302
     6.0624   6.1217   6.1517   6.1840   6.2357   6.2890   6.3622   6.3854
     6.4218   6.5473   6.5498   6.6068   6.6364   6.7191   6.7542   6.8877
     6.9610   7.0376   7.0729   7.1172   7.1390   7.2309   7.2787   7.2991
     7.3729   7.4253   7.4744   7.5664   7.6431   7.7268   7.7784   7.8774
     7.9020   7.9843   8.0545   8.1144   8.1608   8.2067   8.2962   8.3395
     8.3871   8.4651   8.4898   8.5413   8.5855   8.6630   8.6877   8.7661
     8.8316   8.8840   8.9656   9.0430   9.0700   9.1430   9.2156   9.2614
     9.2757   9.3381   9.3749   9.4024   9.4706   9.4890   9.5302   9.5673
     9.6401   9.7051   9.7516   9.8369   9.8785   9.9110   9.9860  10.0040
    10.0389  10.0778  10.1174  10.1524  10.1732  10.1996  10.2635  10.3103
    10.3335  10.4032  10.4600  10.4999  10.5330  10.5479  10.6020  10.6107
    10.6536  10.6703  10.7074  10.7189  10.7558  10.8282  10.8336  10.8662
    10.9026  10.9250  10.9888  11.0139  11.0824  11.1415  11.1855  11.2713
    11.3079  11.3306  11.3866  11.4041  11.4223  11.4473  11.4995  11.5163
    11.5492  11.5916  11.6264  11.6457  11.6795  11.7193  11.7388  11.7827
    11.7990  11.8681  11.8937  11.9457  11.9713  12.0022  12.0549  12.1081
    12.1834  12.1949  12.2178  12.2770  12.3108  12.3455  12.3859  12.4226
    12.4661  12.4882  12.5361  12.6175

     the Fermi energy is    -0.5182 ev

!    total energy              =   -2735.57733981 Ry
     Harris-Foulkes estimate   =   -2735.57733354 Ry
     estimated scf accuracy    <       0.00000064 Ry

     The total energy is the sum of the following terms:

     one-electron contribution =  -60860.70248457 Ry
     hartree contribution      =   30660.18390642 Ry
     xc contribution           =   -1203.62726496 Ry
     ewald contribution        =   28668.72704366 Ry
     smearing contrib. (-TS)   =      -0.15854037 Ry

     total magnetization       =    -0.17 Bohr mag/cell
     absolute magnetization    =     0.19 Bohr mag/cell

     convergence has been achieved in  46 iterations

     Forces acting on atoms (Ry/au):


     negative rho (up, down):  6.432E-03 6.441E-03
     atom    1 type  1   force =    -0.00054947   -0.00015251   -0.00046570
     atom    2 type  1   force =    -0.00018297    0.00005590    0.00015124
     atom    3 type  1   force =    -0.00046385   -0.00023436    0.00022698
     atom    4 type  1   force =    -0.00022474    0.00024453   -0.00004826
     atom    5 type  1   force =    -0.00002355    0.00017401   -0.00008372
     atom    6 type  1   force =    -0.00013929   -0.00007923   -0.00011855
     atom    7 type  1   force =     0.00008183    0.00023988    0.00007585
     atom    8 type  1   force =    -0.00011515   -0.00012076    0.00025404
     atom    9 type  1   force =    -0.00016795    0.00036723   -0.00011745
     atom   10 type  1   force =    -0.00021459    0.00006897   -0.00020761
     atom   11 type  1   force =    -0.00025047    0.00012355    0.00003304
     atom   12 type  1   force =    -0.00018794   -0.00016971    0.00021382
     atom   13 type  1   force =    -0.00007767    0.00015525    0.00016252
     atom   14 type  1   force =    -0.00001991    0.00006714    0.00016579
     atom   15 type  1   force =     0.00004507   -0.00001915    0.00009942
     atom   16 type  1   force =    -0.00020607    0.00012877   -0.00003813
     atom   17 type  1   force =    -0.00012686    0.00019847   -0.00004050
     atom   18 type  1   force =    -0.00005176    0.00014820   -0.00015308
     atom   19 type  1   force =     0.00240230   -0.00076907    0.00848483
     atom   20 type  1   force =     0.00273840    0.00221701    0.00110295
     atom   21 type  1   force =     0.00267869   -0.00186464    0.00097395
     atom   22 type  1   force =     0.00300542   -0.00046676    0.00541011
     atom   23 type  1   force =     0.00323184    0.00023283    0.00541401
     atom   24 type  1   force =     0.00420348   -0.00002574    0.00548275
     atom   25 type  1   force =    -0.01035830   -0.00025848   -0.00432302
     atom   26 type  1   force =    -0.01037799    0.00003921   -0.00477320
     atom   27 type  1   force =    -0.01043891   -0.00038251   -0.00430731
     atom   28 type  1   force =    -0.00723926   -0.00042076   -0.02713610
     atom   29 type  1   force =    -0.00709694    0.00048630   -0.02743898
     atom   30 type  1   force =    -0.00686143   -0.00034122   -0.02836876
     atom   31 type  1   force =     0.00454996   -0.00007783   -0.00293305
     atom   32 type  1   force =     0.00463091   -0.00006753   -0.00305523
     atom   33 type  1   force =     0.00460319    0.00002145   -0.00288194
     atom   34 type  1   force =     0.00793431   -0.00032567    0.02659824
     atom   35 type  1   force =     0.00800213    0.00019624    0.02655015
     atom   36 type  1   force =     0.00699204    0.00004914    0.02523329
     atom   37 type  2   force =     0.00026937   -0.00055883    0.00141273
     atom   38 type  3   force =    -0.00020570    0.00021650   -0.00057009
     atom   39 type  3   force =     0.00029274    0.00024732   -0.00056911
     atom   40 type  4   force =    -0.00008092    0.00065687   -0.00041595

     Total force =     0.073341     Total SCF correction =     0.001017
 !ASE

     Writing output data file calc.save
 
     init_run     :     34.93s CPU     39.55s WALL (       1 calls)
     electrons    :   4359.18s CPU   4973.99s WALL (       1 calls)
     forces       :     56.31s CPU     57.77s WALL (       1 calls)

     Called by init_run:
     wfcinit      :     18.90s CPU     22.66s WALL (       1 calls)
     potinit      :      2.73s CPU      3.00s WALL (       1 calls)

     Called by electrons:
     c_bands      :   2994.15s CPU   3461.21s WALL (      47 calls)
     sum_band     :    904.49s CPU   1017.50s WALL (      47 calls)
     v_of_rho     :     58.42s CPU     69.04s WALL (      47 calls)
     newd         :    407.25s CPU    430.64s WALL (      47 calls)
     mix_rho      :      3.17s CPU      3.96s WALL (      47 calls)
     vdW_energy   :     10.02s CPU     11.61s WALL (      48 calls)
     vdW_ffts     :     16.68s CPU     20.05s WALL (      96 calls)
     vdW_v        :      5.98s CPU      6.69s WALL (      48 calls)

     Called by c_bands:
     init_us_2    :     10.85s CPU     11.56s WALL (     960 calls)
     cegterg      :   2913.90s CPU   3377.74s WALL (     470 calls)

     Called by *egterg:
     h_psi        :   1254.45s CPU   1596.51s WALL (    1723 calls)
     s_psi        :    183.95s CPU    190.47s WALL (    1723 calls)
     g_psi        :      7.72s CPU      7.87s WALL (    1243 calls)
     cdiaghg      :    826.37s CPU    843.02s WALL (    1703 calls)

     Called by h_psi:
     add_vuspsi   :    185.40s CPU    191.37s WALL (    1723 calls)

     General routines
     calbec       :    281.33s CPU    287.07s WALL (    2203 calls)
     fft          :     42.45s CPU     49.67s WALL (    3874 calls)
     ffts         :      0.27s CPU      0.36s WALL (     188 calls)
     fftw         :    731.68s CPU   1145.29s WALL (  960712 calls)
     interpolate  :      1.94s CPU      2.82s WALL (     188 calls)
     davcio       :      0.04s CPU      0.95s WALL (      10 calls)
 
     Parallel routines
     fft_scatter  :    417.19s CPU    657.18s WALL (  964774 calls)
 
     PWSCF        :     1h14m CPU        1h24m WALL

 
   This run was terminated on:  13:43:17   3Jul2017            

=------------------------------------------------------------------------------=
   JOB DONE.
=------------------------------------------------------------------------------=
