  python dir          : /home/vossj/suncat/lib/python2.7/site-packages/espresso
  espresso dir        : /home/vossj/suncat/esdld/espresso-dynpy-beef/bin
  pseudo dir          : /home/alatimer/bin/psp/gbrv/
  ase-espresso py git : ffa2778-git



     Program PWSCF v.5.1rc2 (svn rev. ) starts on  4Apr2018 at  6:16:31 

     This program is part of the open-source Quantum ESPRESSO suite
     for quantum simulation of materials; please cite
         "P. Giannozzi et al., J. Phys.:Condens. Matter 21 395502 (2009);
          URL http://www.quantum-espresso.org", 
     in publications or presentations arising from this work. More details at
     http://www.quantum-espresso.org/quote

     Parallel version (MPI), running on    16 processors
     R & G space division:  proc/nbgrp/npool/nimage =      16
     Reading input from pw.inp
     Message from routine read_cards :
     DEPRECATED: no units specified in CELL_PARAMETERS card

     Current dimensions of program PWSCF are:
     Max number of different atomic species (ntypx) = 10
     Max number of k-points (npk) =  40000
     Max angular momentum in pseudopotentials (lmaxx) =  3

     **************************************************************************
     Initializing libbeef V0.1.1 with the BEEF-vdW functional.
     Citation: Wellendorff et al., PRB 85, 235149 (2012).
     **************************************************************************


     IMPORTANT: XC functional enforced from input :
     Exchange-correlation      = BEEF ( 1  4 27 13 2)
     Any further DFT definition will be discarded
     Please, verify this is what you really want


     Subspace diagonalization in iterative solution of the eigenvalue problem:
     a serial algorithm will be used

 
     Parallelization info
     --------------------
     sticks:   dense  smooth     PW     G-vecs:    dense   smooth      PW
     Min        2871    1149    287               463149   117196   14645
     Max        2872    1150    288               463150   117224   14648
     Sum       45949   18393   4597              7410397  1875353  234345
 
     Generating pointlists ...
     new r_m :   0.4125 (alat units)  0.7795 (a.u.) for type    1
     new r_m :   0.4007 (alat units)  0.7571 (a.u.) for type    2
     new r_m :   0.4007 (alat units)  0.7571 (a.u.) for type    3
     new r_m :   0.4125 (alat units)  0.7795 (a.u.) for type    4
     new r_m :   0.4125 (alat units)  0.7795 (a.u.) for type    5


     bravais-lattice index     =            0
     lattice parameter (alat)  =       1.8897  a.u.
     unit-cell volume          =   53986.6760 (a.u.)^3
     number of atoms/cell      =            6
     number of atomic types    =            5
     number of electrons       =        14.00
     number of Kohn-Sham states=           37
     kinetic-energy cutoff     =      40.4243  Ry
     charge density cutoff     =     404.2426  Ry
     convergence threshold     =      7.3E-07
     mixing beta               =       0.1000
     number of iterations used =           10  plain     mixing
     Exchange-correlation      = BEEF ( 1  4 27 13 2)
     nstep                     =           50


     celldm(1)=   1.889726  celldm(2)=   0.000000  celldm(3)=   0.000000
     celldm(4)=   0.000000  celldm(5)=   0.000000  celldm(6)=   0.000000

     crystal axes: (cart. coord. in units of alat)
               a(1) = (  20.000000   0.000000   0.000000 )  
               a(2) = (   0.000000  20.000000   0.000000 )  
               a(3) = (   0.000000   0.000000  20.000000 )  

     reciprocal axes: (cart. coord. in units 2 pi/alat)
               b(1) = (  0.050000  0.000000  0.000000 )  
               b(2) = (  0.000000  0.050000  0.000000 )  
               b(3) = (  0.000000  0.000000  0.050000 )  


     PseudoPot. # 1 for C  read from file:
     /home/alatimer/bin/psp/gbrv/C.UPF
     MD5 check sum: d1aef80898a10debaa0f26306b886e00
     Pseudo is Ultrasoft + core correction, Zval =  4.0
     Generated by new atomic code, or converted to UPF format
     Using radial grid of  721 points,  4 beta functions with: 
                l(1) =   0
                l(2) =   0
                l(3) =   1
                l(4) =   1
     Q(r) pseudized with  8 coefficients,  rinner =    1.100   1.100   1.100


     PseudoPot. # 2 for O  read from file:
     /home/alatimer/bin/psp/gbrv/O.UPF
     MD5 check sum: 734c27235a0248c51dbae37a1fbe46ec
     Pseudo is Ultrasoft + core correction, Zval =  6.0
     Generated by new atomic code, or converted to UPF format
     Using radial grid of  737 points,  5 beta functions with: 
                l(1) =   0
                l(2) =   0
                l(3) =   1
                l(4) =   1
                l(5) =   2
     Q(r) pseudized with  8 coefficients,  rinner =    0.900   0.900   0.900
                                                       0.900   0.900

     PseudoPot. # 3 for H  read from file:
     /home/alatimer/bin/psp/gbrv/H.UPF
     MD5 check sum: 761ae9a214b05c3daf00ab9f6b793d6f
     Pseudo is Ultrasoft, Zval =  1.0
     Generated by new atomic code, or converted to UPF format
     Using radial grid of  615 points,  2 beta functions with: 
                l(1) =   0
                l(2) =   0
     Q(r) pseudized with  8 coefficients,  rinner =    0.700

     PseudoPot. # 4 for H  read from file:
     /home/alatimer/bin/psp/gbrv/H.UPF
     MD5 check sum: 761ae9a214b05c3daf00ab9f6b793d6f
     Pseudo is Ultrasoft, Zval =  1.0
     Generated by new atomic code, or converted to UPF format
     Using radial grid of  615 points,  2 beta functions with: 
                l(1) =   0
                l(2) =   0
     Q(r) pseudized with  8 coefficients,  rinner =    0.700

     PseudoPot. # 5 for H  read from file:
     /home/alatimer/bin/psp/gbrv/H.UPF
     MD5 check sum: 761ae9a214b05c3daf00ab9f6b793d6f
     Pseudo is Ultrasoft, Zval =  1.0
     Generated by new atomic code, or converted to UPF format
     Using radial grid of  615 points,  2 beta functions with: 
                l(1) =   0
                l(2) =   0
     Q(r) pseudized with  8 coefficients,  rinner =    0.700

     vdW kernel table read from file vdW_kernel_table
     MD5 check sum: 095c7af220d748ca6e76c0b4c6cfb241

     atomic species   valence    mass     pseudopotential
        C1             4.00    12.01100     C ( 1.00)
        O1             6.00    15.99940     O ( 1.00)
        H1             1.00     1.00794     H ( 1.00)
        H2             1.00     1.00794     H ( 1.00)
        H3             1.00     1.00794     H ( 1.00)

     Starting magnetic structure 
     atomic species   magnetization
        C1           0.000
        O1           0.000
        H1           0.000
        H2          -0.000
        H3          -0.000

     No symmetry found



   Cartesian axes

     site n.     atom                  positions (alat units)
         1           C1  tau(   1) = (  10.3153723  10.9162889  10.8898373  )
         2           O1  tau(   2) = (  10.4250952   9.5022032  10.7432246  )
         3           H1  tau(   3) = (  11.2845268  11.2679511  11.2444240  )
         4           H1  tau(   4) = (   9.5708145   9.1651063  10.4270068  )
         5           H2  tau(   5) = (  10.0909622  11.4134516   9.9381671  )
         6           H3  tau(   6) = (   9.5521148  11.1965660  11.6260462  )

     number of k points=     2  Fermi-Dirac smearing, width (Ry)=  0.0073
                       cart. coord. in units 2pi/alat
        k(    1) = (   0.0000000   0.0000000   0.0000000), wk =   1.0000000
        k(    2) = (   0.0000000   0.0000000   0.0000000), wk =   1.0000000

     Dense  grid:  7410397 G-vectors     FFT dimensions: ( 243, 243, 243)

     Smooth grid:  1875353 G-vectors     FFT dimensions: ( 160, 160, 160)

     Largest allocated arrays     est. size (Mb)     dimensions
        Kohn-Sham Wavefunctions         8.27 Mb     (   14647,   37)
        NL pseudopotentials             6.48 Mb     (   14647,   29)
        Each V/rho on FFT grid         28.83 Mb     (  944784,   2)
        Each G-vector array             3.53 Mb     (  463149)
        G-vector shells                 0.09 Mb     (   12123)
     Largest temporary arrays     est. size (Mb)     dimensions
        Auxiliary wavefunctions        33.08 Mb     (   14647,  148)
        Each subspace H/S matrix        0.33 Mb     (     148,  148)
        Each <psi_i|beta_j> matrix      0.02 Mb     (      29,   37)
        Arrays for rho mixing         144.16 Mb     (  944784,   10)

     Initial potential from superposition of free atoms
     Check: negative starting charge=(component1):   -0.001039
     Check: negative starting charge=(component2):   -0.001039

     starting charge   13.99992, renormalised to   14.00000

     negative rho (up, down):  1.038E-03 1.038E-03


     ************************************************************************
     *
     * You are using vdW-DF for exchange-correlation in this calculation.
     * Please cite the following three references that made this development
     * possible:
     *
     *   M. Dion, H. Rydberg, E. Schroder, D. C. Langreth, and
     *   B. I. Lundqvist, Phys. Rev. Lett. 92, 246401 (2004).
     *
     *   T. Thonhauser, V. R. Cooper, S. Li, A. Puzder, P. Hyldgaard, and
     *   D. C. Langreth, Phys. Rev. B 76, 125112 (2007).
     *
     *   G. Roman-Perez and J. M. Soler, Phys. Rev. Lett. 103, 096102 (2009).
     *
     *
     * If you are using vdW-DF2, please also cite:
     *
     *   K. Lee, E. D. Murray, L. Kong, B. I. Lundqvist, and
     *   D. C. Langreth, Phys. Rev. B 82, 081101(R) (2010).
     *
     *
     * If you are calculating the stress with vdW-DF, please also cite:
     *
     *   R. Sabatini, E. Kucukbenli, B. Kolb, T. Thonhauser, and
     *   S. de Gironcoli, J. Phys.: Condens. Matter 24, 424209 (2012).
     *
     ************************************************************************

     Carrying out vdW-DF run using the following parameters:

     Nqs =      20    Nr_points =    1024   r_max =   100.000
     q_mesh =
               0.00001000     0.04494208     0.09755937     0.15916263
               0.23128650     0.31572767     0.41458969     0.53033537
               0.66584808     0.82450364     1.01025438     1.22772762
               1.48234092     1.78043706     2.12944203     2.53805004
               3.01644009     3.57652955     4.23227104     5.00000000

     Gradients computed in reciprocal space

     ************************************************************************


     Starting wfc are   12 randomized atomic wfcs +   25 random wfc

     total cpu time spent up to now is       22.3 secs

     Self-consistent Calculation

     iteration #  1     ecut=    40.42 Ry     beta=0.10
     Davidson diagonalization with overlap
     ethr =  1.00E-02,  avg # of iterations = 12.0

     negative rho (up, down):  1.078E-03 1.078E-03
 
     Magnetic moment per site:
     atom:    1    charge:    0.6231    magn:    0.0000    constr:    0.0000
     atom:    2    charge:    1.9320    magn:    0.0000    constr:    0.0000
     atom:    3    charge:    0.2966    magn:    0.0000    constr:    0.0000
     atom:    4    charge:    0.3373    magn:   -0.0000    constr:    0.0000
     atom:    5    charge:    0.3140    magn:   -0.0000    constr:    0.0000
     atom:    6    charge:    0.3136    magn:   -0.0000    constr:    0.0000

     total cpu time spent up to now is       59.8 secs

     total energy              =     -49.22544480 Ry
     Harris-Foulkes estimate   =     -49.33170584 Ry
     estimated scf accuracy    <       0.77208109 Ry

     total magnetization       =    -0.00 Bohr mag/cell
     absolute magnetization    =     0.00 Bohr mag/cell

     iteration #  2     ecut=    40.42 Ry     beta=0.10
     Davidson diagonalization with overlap
     ethr =  5.51E-03,  avg # of iterations =  1.0

     negative rho (up, down):  2.517E-03 2.517E-03
 
     Magnetic moment per site:
     atom:    1    charge:    0.6786    magn:    0.0000    constr:    0.0000
     atom:    2    charge:    2.0275    magn:   -0.0000    constr:    0.0000
     atom:    3    charge:    0.3447    magn:   -0.0000    constr:    0.0000
     atom:    4    charge:    0.3553    magn:   -0.0000    constr:    0.0000
     atom:    5    charge:    0.3642    magn:   -0.0000    constr:    0.0000
     atom:    6    charge:    0.3638    magn:   -0.0000    constr:    0.0000

     total cpu time spent up to now is       82.3 secs

     total energy              =     -48.98897351 Ry
     Harris-Foulkes estimate   =     -49.23231111 Ry
     estimated scf accuracy    <       0.49564248 Ry

     total magnetization       =    -0.00 Bohr mag/cell
     absolute magnetization    =     0.00 Bohr mag/cell

     iteration #  3     ecut=    40.42 Ry     beta=0.10
     Davidson diagonalization with overlap
     ethr =  3.54E-03,  avg # of iterations =  4.0

     negative rho (up, down):  2.903E-03 2.902E-03
 
     Magnetic moment per site:
     atom:    1    charge:    0.6552    magn:   -0.0000    constr:    0.0000
     atom:    2    charge:    1.9562    magn:   -0.0000    constr:    0.0000
     atom:    3    charge:    0.3668    magn:    0.0000    constr:    0.0000
     atom:    4    charge:    0.3801    magn:   -0.0000    constr:    0.0000
     atom:    5    charge:    0.3895    magn:   -0.0000    constr:    0.0000
     atom:    6    charge:    0.3890    magn:   -0.0000    constr:    0.0000

     total cpu time spent up to now is      105.2 secs

     total energy              =     -49.05603354 Ry
     Harris-Foulkes estimate   =     -49.07403471 Ry
     estimated scf accuracy    <       0.06065695 Ry

     total magnetization       =    -0.00 Bohr mag/cell
     absolute magnetization    =     0.00 Bohr mag/cell

     iteration #  4     ecut=    40.42 Ry     beta=0.10
     Davidson diagonalization with overlap
     ethr =  4.33E-04,  avg # of iterations =  8.0

     negative rho (up, down):  3.895E-03 3.895E-03
 
     Magnetic moment per site:
     atom:    1    charge:    0.6650    magn:   -0.0000    constr:    0.0000
     atom:    2    charge:    1.9688    magn:   -0.0000    constr:    0.0000
     atom:    3    charge:    0.3928    magn:    0.0000    constr:    0.0000
     atom:    4    charge:    0.3960    magn:   -0.0000    constr:    0.0000
     atom:    5    charge:    0.4172    magn:   -0.0000    constr:    0.0000
     atom:    6    charge:    0.4167    magn:   -0.0000    constr:    0.0000

     total cpu time spent up to now is      132.5 secs

     total energy              =     -49.04948031 Ry
     Harris-Foulkes estimate   =     -49.07313045 Ry
     estimated scf accuracy    <       0.05671936 Ry

     total magnetization       =    -0.00 Bohr mag/cell
     absolute magnetization    =     0.00 Bohr mag/cell

     iteration #  5     ecut=    40.42 Ry     beta=0.10
     Davidson diagonalization with overlap
     ethr =  4.05E-04,  avg # of iterations =  2.0

     negative rho (up, down):  3.766E-03 3.766E-03
 
     Magnetic moment per site:
     atom:    1    charge:    0.6581    magn:   -0.0000    constr:    0.0000
     atom:    2    charge:    1.9739    magn:   -0.0000    constr:    0.0000
     atom:    3    charge:    0.3960    magn:    0.0000    constr:    0.0000
     atom:    4    charge:    0.3990    magn:   -0.0000    constr:    0.0000
     atom:    5    charge:    0.4200    magn:   -0.0000    constr:    0.0000
     atom:    6    charge:    0.4194    magn:   -0.0000    constr:    0.0000

     total cpu time spent up to now is      155.2 secs

     total energy              =     -49.05400217 Ry
     Harris-Foulkes estimate   =     -49.05556186 Ry
     estimated scf accuracy    <       0.00596134 Ry

     total magnetization       =    -0.00 Bohr mag/cell
     absolute magnetization    =     0.00 Bohr mag/cell

     iteration #  6     ecut=    40.42 Ry     beta=0.10
     Davidson diagonalization with overlap
     ethr =  4.26E-05,  avg # of iterations =  5.5

     negative rho (up, down):  3.974E-03 3.974E-03
 
     Magnetic moment per site:
     atom:    1    charge:    0.6548    magn:   -0.0000    constr:    0.0000
     atom:    2    charge:    1.9708    magn:   -0.0000    constr:    0.0000
     atom:    3    charge:    0.4051    magn:    0.0000    constr:    0.0000
     atom:    4    charge:    0.4066    magn:   -0.0000    constr:    0.0000
     atom:    5    charge:    0.4295    magn:   -0.0000    constr:    0.0000
     atom:    6    charge:    0.4289    magn:   -0.0001    constr:    0.0000

     total cpu time spent up to now is      181.2 secs

     total energy              =     -49.05401816 Ry
     Harris-Foulkes estimate   =     -49.05455582 Ry
     estimated scf accuracy    <       0.00176611 Ry

     total magnetization       =     0.00 Bohr mag/cell
     absolute magnetization    =     0.00 Bohr mag/cell

     iteration #  7     ecut=    40.42 Ry     beta=0.10
     Davidson diagonalization with overlap
     ethr =  1.26E-05,  avg # of iterations =  6.5

     negative rho (up, down):  3.858E-03 3.858E-03
 
     Magnetic moment per site:
     atom:    1    charge:    0.6569    magn:   -0.0000    constr:    0.0000
     atom:    2    charge:    1.9719    magn:   -0.0000    constr:    0.0000
     atom:    3    charge:    0.4067    magn:    0.0000    constr:    0.0000
     atom:    4    charge:    0.4086    magn:   -0.0000    constr:    0.0000
     atom:    5    charge:    0.4308    magn:   -0.0000    constr:    0.0000
     atom:    6    charge:    0.4303    magn:   -0.0000    constr:    0.0000

     total cpu time spent up to now is      205.4 secs

     total energy              =     -49.05409316 Ry
     Harris-Foulkes estimate   =     -49.05415087 Ry
     estimated scf accuracy    <       0.00020350 Ry

     total magnetization       =     0.00 Bohr mag/cell
     absolute magnetization    =     0.00 Bohr mag/cell

     iteration #  8     ecut=    40.42 Ry     beta=0.10
     Davidson diagonalization with overlap
     c_bands:  1 eigenvalues not converged
     ethr =  1.45E-06,  avg # of iterations = 16.5

     negative rho (up, down):  3.654E-03 3.654E-03
 
     Magnetic moment per site:
     atom:    1    charge:    0.6566    magn:    0.0000    constr:    0.0000
     atom:    2    charge:    1.9692    magn:   -0.0000    constr:    0.0000
     atom:    3    charge:    0.4064    magn:    0.0000    constr:    0.0000
     atom:    4    charge:    0.4098    magn:   -0.0000    constr:    0.0000
     atom:    5    charge:    0.4303    magn:   -0.0000    constr:    0.0000
     atom:    6    charge:    0.4298    magn:   -0.0000    constr:    0.0000

     total cpu time spent up to now is      234.2 secs

     total energy              =     -49.05410917 Ry
     Harris-Foulkes estimate   =     -49.05417829 Ry
     estimated scf accuracy    <       0.00014199 Ry

     total magnetization       =     0.00 Bohr mag/cell
     absolute magnetization    =     0.00 Bohr mag/cell

     iteration #  9     ecut=    40.42 Ry     beta=0.10
     Davidson diagonalization with overlap
     ethr =  1.01E-06,  avg # of iterations =  2.5

     negative rho (up, down):  3.418E-03 3.418E-03
 
     Magnetic moment per site:
     atom:    1    charge:    0.6562    magn:    0.0000    constr:    0.0000
     atom:    2    charge:    1.9696    magn:   -0.0000    constr:    0.0000
     atom:    3    charge:    0.4067    magn:    0.0000    constr:    0.0000
     atom:    4    charge:    0.4099    magn:   -0.0000    constr:    0.0000
     atom:    5    charge:    0.4306    magn:   -0.0000    constr:    0.0000
     atom:    6    charge:    0.4301    magn:   -0.0000    constr:    0.0000

     total cpu time spent up to now is      257.3 secs

     total energy              =     -49.05414125 Ry
     Harris-Foulkes estimate   =     -49.05413761 Ry
     estimated scf accuracy    <       0.00000481 Ry

     total magnetization       =     0.00 Bohr mag/cell
     absolute magnetization    =     0.00 Bohr mag/cell

     iteration # 10     ecut=    40.42 Ry     beta=0.10
     Davidson diagonalization with overlap
     ethr =  3.44E-08,  avg # of iterations =  2.0

     negative rho (up, down):  3.223E-03 3.223E-03
 
     Magnetic moment per site:
     atom:    1    charge:    0.6568    magn:    0.0000    constr:    0.0000
     atom:    2    charge:    1.9695    magn:   -0.0000    constr:    0.0000
     atom:    3    charge:    0.4062    magn:    0.0000    constr:    0.0000
     atom:    4    charge:    0.4099    magn:   -0.0000    constr:    0.0000
     atom:    5    charge:    0.4301    magn:   -0.0000    constr:    0.0000
     atom:    6    charge:    0.4296    magn:   -0.0000    constr:    0.0000

     total cpu time spent up to now is      280.3 secs

     total energy              =     -49.05414491 Ry
     Harris-Foulkes estimate   =     -49.05414350 Ry
     estimated scf accuracy    <       0.00000698 Ry

     total magnetization       =    -0.00 Bohr mag/cell
     absolute magnetization    =     0.00 Bohr mag/cell

     iteration # 11     ecut=    40.42 Ry     beta=0.10
     Davidson diagonalization with overlap
     ethr =  3.44E-08,  avg # of iterations =  2.0

     negative rho (up, down):  3.054E-03 3.054E-03
 
     Magnetic moment per site:
     atom:    1    charge:    0.6568    magn:    0.0000    constr:    0.0000
     atom:    2    charge:    1.9695    magn:   -0.0000    constr:    0.0000
     atom:    3    charge:    0.4061    magn:    0.0000    constr:    0.0000
     atom:    4    charge:    0.4099    magn:   -0.0000    constr:    0.0000
     atom:    5    charge:    0.4300    magn:   -0.0000    constr:    0.0000
     atom:    6    charge:    0.4294    magn:   -0.0000    constr:    0.0000

     total cpu time spent up to now is      303.4 secs

     total energy              =     -49.05414982 Ry
     Harris-Foulkes estimate   =     -49.05414572 Ry
     estimated scf accuracy    <       0.00000075 Ry

     total magnetization       =     0.00 Bohr mag/cell
     absolute magnetization    =     0.00 Bohr mag/cell

     iteration # 12     ecut=    40.42 Ry     beta=0.10
     Davidson diagonalization with overlap
     ethr =  5.32E-09,  avg # of iterations =  2.0

     negative rho (up, down):  2.562E-03 2.562E-03
 
     Magnetic moment per site:
     atom:    1    charge:    0.6568    magn:    0.0000    constr:    0.0000
     atom:    2    charge:    1.9694    magn:   -0.0000    constr:    0.0000
     atom:    3    charge:    0.4061    magn:    0.0000    constr:    0.0000
     atom:    4    charge:    0.4099    magn:   -0.0000    constr:    0.0000
     atom:    5    charge:    0.4300    magn:   -0.0000    constr:    0.0000
     atom:    6    charge:    0.4294    magn:   -0.0000    constr:    0.0000

     total cpu time spent up to now is      325.8 secs

     End of self-consistent calculation

 ------ SPIN UP ------------


          k = 0.0000 0.0000 0.0000 (234345 PWs)   bands (ev):

   -25.7188 -17.1728 -12.7910 -10.9675 -10.6678  -8.3864  -6.6592  -1.1413
    -0.5088  -0.2103  -0.0555  -0.0252   0.0879   0.0922   0.1585   0.2505
     0.2679   0.2913   0.4218   0.4410   0.4489   0.4612   0.4627   0.4716
     0.4768   0.4793   0.6093   0.7184   0.7193   0.7570   0.7904   0.8050
     0.8106   0.8405   0.9413   1.0070   1.0273

 ------ SPIN DOWN ----------


          k = 0.0000 0.0000 0.0000 (234345 PWs)   bands (ev):

   -25.7188 -17.1728 -12.7910 -10.9675 -10.6678  -8.3864  -6.6592  -1.1413
    -0.5088  -0.2103  -0.0555  -0.0252   0.0879   0.0922   0.1585   0.2505
     0.2679   0.2913   0.4218   0.4410   0.4489   0.4612   0.4627   0.4716
     0.4768   0.4793   0.6093   0.7184   0.7193   0.7570   0.7904   0.8050
     0.8106   0.8405   0.9412   1.0068   1.0258

     the Fermi energy is    -3.8626 ev

!    total energy              =     -49.05417744 Ry
     Harris-Foulkes estimate   =     -49.05414997 Ry
     estimated scf accuracy    <       0.00000003 Ry

     The total energy is the sum of the following terms:

     one-electron contribution =    -145.22704695 Ry
     hartree contribution      =      74.88726086 Ry
     xc contribution           =     -14.40355619 Ry
     ewald contribution        =      35.68916484 Ry
     smearing contrib. (-TS)   =      -0.00000000 Ry

     total magnetization       =    -0.00 Bohr mag/cell
     absolute magnetization    =     0.00 Bohr mag/cell

     convergence has been achieved in  12 iterations

     Forces acting on atoms (Ry/au):


     negative rho (up, down):  2.562E-03 2.562E-03
     atom    1 type  1   force =    -0.00025669    0.00032562   -0.00006941
     atom    2 type  2   force =    -0.00019047   -0.00020398   -0.00009592
     atom    3 type  3   force =    -0.00005389    0.00041013    0.00003180
     atom    4 type  3   force =    -0.00014746   -0.00060864   -0.00011828
     atom    5 type  4   force =     0.00026772   -0.00000656    0.00035080
     atom    6 type  5   force =     0.00038079    0.00008343   -0.00009898

     Total force =     0.001095     Total SCF correction =     0.000323
     SCF correction compared to forces is large: reduce conv_thr to get better values
 !ASE

     Writing output data file calc.save
 
     init_run     :     18.16s CPU     22.09s WALL (       1 calls)
     electrons    :    237.54s CPU    305.01s WALL (       1 calls)
     forces       :     15.13s CPU     17.34s WALL (       1 calls)

     Called by init_run:
     wfcinit      :      1.61s CPU      2.21s WALL (       1 calls)
     potinit      :      8.42s CPU     10.29s WALL (       1 calls)

     Called by electrons:
     c_bands      :     64.52s CPU     87.81s WALL (      12 calls)
     sum_band     :     49.40s CPU     57.30s WALL (      12 calls)
     v_of_rho     :     97.86s CPU    120.40s WALL (      13 calls)
     newd         :     26.52s CPU     40.35s WALL (      13 calls)
     mix_rho      :      5.26s CPU      6.59s WALL (      12 calls)
     vdW_energy   :     20.72s CPU     24.30s WALL (      14 calls)
     vdW_ffts     :     35.61s CPU     43.20s WALL (      28 calls)
     vdW_v        :     10.46s CPU     11.96s WALL (      14 calls)

     Called by c_bands:
     init_us_2    :      0.42s CPU      0.59s WALL (      52 calls)
     cegterg      :     63.73s CPU     86.95s WALL (      24 calls)

     Called by *egterg:
     h_psi        :     56.71s CPU     78.19s WALL (     154 calls)
     s_psi        :      0.68s CPU      0.70s WALL (     154 calls)
     g_psi        :      0.36s CPU      0.37s WALL (     128 calls)
     cdiaghg      :      0.53s CPU      0.54s WALL (     152 calls)

     Called by h_psi:
     add_vuspsi   :      0.72s CPU      0.74s WALL (     154 calls)

     General routines
     calbec       :      0.77s CPU      0.81s WALL (     180 calls)
     fft          :     72.02s CPU     86.84s WALL (    1112 calls)
     ffts         :      0.67s CPU      0.85s WALL (      50 calls)
     fftw         :     41.12s CPU     64.69s WALL (    6604 calls)
     interpolate  :      4.16s CPU      5.80s WALL (      50 calls)
     davcio       :      0.01s CPU      0.18s WALL (       2 calls)
 
     Parallel routines
     fft_scatter  :     68.89s CPU     90.88s WALL (    7766 calls)
 
     PWSCF        :  4m32.51s CPU     5m47.43s WALL

 
   This run was terminated on:   6:22:18   4Apr2018            

=------------------------------------------------------------------------------=
   JOB DONE.
=------------------------------------------------------------------------------=
